<?xml version="1.0" encoding="UTF-8"?>

<!-- generated on 2023-07-30 20:16:27 by Eclipse SUMO sumo Version 1.17.0
<configuration xmlns:xsi="http://www.w3.org/2001/XMLSchema-instance" xsi:noNamespaceSchemaLocation="http://sumo.dlr.de/xsd/sumoConfiguration.xsd">

    <input>
        <net-file value="Data0-0\intersection.net.xml"/>
        <route-files value="Data0-0\intersection.rou.xml"/>
        <additional-files value="Data0-0\intersection.det.xml"/>
    </input>

    <output>
        <tripinfo-output value="Data0-0\tripinfo.xml"/>
    </output>

    <time>
        <begin value="0"/>
    </time>

    <processing>
        <time-to-teleport value="-1"/>
        <waiting-time-memory value="60000"/>
    </processing>

    <report>
        <verbose value="true"/>
        <no-step-log value="true"/>
    </report>

    <emissions>
        <device.emissions.probability value="1.0"/>
    </emissions>

    <traci_server>
        <remote-port value="50892"/>
    </traci_server>

    <gui_only>
        <gui-settings-file value="Data0-0\intersection.settings.xml"/>
    </gui_only>

</configuration>
-->

<tripinfos xmlns:xsi="http://www.w3.org/2001/XMLSchema-instance" xsi:noNamespaceSchemaLocation="http://sumo.dlr.de/xsd/tripinfo_file.xsd">
    <tripinfo id="4" depart="1.00" departLane="S_0" departPos="5.10" departSpeed="10.04" departDelay="0.00" arrival="119.00" arrivalLane="-W_0" arrivalPos="783.20" arrivalSpeed="14.17" duration="118.00" routeLength="1570.33" waitingTime="0.00" waitingCount="0" stopTime="0.00" timeLoss="6.79" rerouteNo="0" devices="tripinfo_4 emissions_4" vType="passenger" speedFactor="1.03" vaporized="">
        <emissions CO_abs="1937.872974" CO2_abs="290944.685521" HC_abs="14.608494" PMx_abs="3.525287" NOx_abs="104.328905" fuel_abs="92798.370957" electricity_abs="0"/>
    </tripinfo>
    <tripinfo id="2" depart="1.00" departLane="W_0" departPos="5.10" departSpeed="14.03" departDelay="0.00" arrival="120.00" arrivalLane="-N_0" arrivalPos="780.00" arrivalSpeed="13.98" duration="119.00" routeLength="1567.13" waitingTime="0.00" waitingCount="0" stopTime="0.00" timeLoss="5.90" rerouteNo="0" devices="tripinfo_2 emissions_2" vType="passenger" speedFactor="1.01" vaporized="">
        <emissions CO_abs="1689.343430" CO2_abs="266720.129487" HC_abs="12.943507" PMx_abs="3.080047" NOx_abs="94.016007" fuel_abs="85071.976018" electricity_abs="0"/>
    </tripinfo>
    <tripinfo id="12" depart="7.00" departLane="S_3" departPos="5.10" departSpeed="14.54" departDelay="0.00" arrival="124.00" arrivalLane="-E_0" arrivalPos="783.20" arrivalSpeed="14.01" duration="117.00" routeLength="1598.14" waitingTime="0.00" waitingCount="0" stopTime="0.00" timeLoss="6.46" rerouteNo="0" devices="tripinfo_12 emissions_12" vType="passenger" speedFactor="1.05" vaporized="">
        <emissions CO_abs="1442.509205" CO2_abs="276019.440552" HC_abs="11.646180" PMx_abs="2.935347" NOx_abs="94.427143" fuel_abs="88038.153412" electricity_abs="0"/>
    </tripinfo>
    <tripinfo id="13" depart="8.00" departLane="S_0" departPos="5.10" departSpeed="15.60" departDelay="0.00" arrival="124.00" arrivalLane="-W_0" arrivalPos="783.20" arrivalSpeed="14.91" duration="116.00" routeLength="1570.33" waitingTime="0.00" waitingCount="0" stopTime="0.00" timeLoss="13.55" rerouteNo="0" devices="tripinfo_13 emissions_13" vType="passenger" speedFactor="1.12" vaporized="">
        <emissions CO_abs="1832.203698" CO2_abs="280849.453259" HC_abs="13.604175" PMx_abs="3.340166" NOx_abs="99.036637" fuel_abs="89578.472402" electricity_abs="0"/>
    </tripinfo>
    <tripinfo id="11" depart="5.00" departLane="S_0" departPos="5.10" departSpeed="14.26" departDelay="0.00" arrival="125.00" arrivalLane="-W_0" arrivalPos="783.20" arrivalSpeed="13.74" duration="120.00" routeLength="1570.33" waitingTime="0.00" waitingCount="0" stopTime="0.00" timeLoss="9.24" rerouteNo="0" devices="tripinfo_11 emissions_11" vType="passenger" speedFactor="1.03" vaporized="">
        <emissions CO_abs="1726.877593" CO2_abs="279559.387974" HC_abs="13.219867" PMx_abs="3.066075" NOx_abs="97.349345" fuel_abs="89167.284205" electricity_abs="0"/>
    </tripinfo>
    <tripinfo id="1" depart="0.00" departLane="S_0" departPos="5.10" departSpeed="13.03" departDelay="0.00" arrival="128.00" arrivalLane="-N_0" arrivalPos="780.00" arrivalSpeed="12.53" duration="128.00" routeLength="1595.43" waitingTime="0.00" waitingCount="0" stopTime="0.00" timeLoss="4.90" rerouteNo="0" devices="tripinfo_1 emissions_1" vType="passenger" speedFactor="0.94" vaporized="">
        <emissions CO_abs="1358.592749" CO2_abs="266713.280623" HC_abs="11.203448" PMx_abs="2.448696" NOx_abs="90.194257" fuel_abs="85070.322710" electricity_abs="0"/>
    </tripinfo>
    <tripinfo id="31" depart="27.00" departLane="N_1" departPos="5.10" departSpeed="16.03" departDelay="0.00" arrival="131.00" arrivalLane="-E_0" arrivalPos="783.20" arrivalSpeed="15.18" duration="104.00" routeLength="1569.83" waitingTime="0.00" waitingCount="0" stopTime="0.00" timeLoss="4.87" rerouteNo="0" devices="tripinfo_31 emissions_31" vType="passenger" speedFactor="1.15" vaporized="">
        <emissions CO_abs="1497.805753" CO2_abs="269337.857849" HC_abs="12.030733" PMx_abs="3.413126" NOx_abs="95.112055" fuel_abs="85906.476759" electricity_abs="0"/>
    </tripinfo>
    <tripinfo id="20" depart="15.00" departLane="N_3" departPos="5.10" departSpeed="14.14" departDelay="0.00" arrival="136.00" arrivalLane="-W_0" arrivalPos="783.20" arrivalSpeed="13.57" duration="121.00" routeLength="1588.47" waitingTime="0.00" waitingCount="0" stopTime="0.00" timeLoss="7.60" rerouteNo="0" devices="tripinfo_20 emissions_20" vType="passenger" speedFactor="1.02" vaporized="">
        <emissions CO_abs="1747.659035" CO2_abs="278288.771874" HC_abs="13.297100" PMx_abs="3.092736" NOx_abs="96.954975" fuel_abs="88761.992077" electricity_abs="0"/>
    </tripinfo>
    <tripinfo id="37" depart="36.00" departLane="W_3" departPos="5.10" departSpeed="16.39" departDelay="0.00" arrival="137.00" arrivalLane="-E_0" arrivalPos="783.20" arrivalSpeed="16.38" duration="101.00" routeLength="1594.90" waitingTime="0.00" waitingCount="0" stopTime="0.00" timeLoss="2.76" rerouteNo="0" devices="tripinfo_37 emissions_37" vType="passenger" speedFactor="1.18" vaporized="">
        <emissions CO_abs="780.718123" CO2_abs="246804.233933" HC_abs="7.871100" PMx_abs="2.709353" NOx_abs="82.960862" fuel_abs="78719.427802" electricity_abs="0"/>
    </tripinfo>
    <tripinfo id="7" depart="2.00" departLane="S_2" departPos="5.10" departSpeed="12.31" departDelay="0.00" arrival="138.00" arrivalLane="-E_0" arrivalPos="783.20" arrivalSpeed="11.69" duration="136.00" routeLength="1598.14" waitingTime="0.00" waitingCount="0" stopTime="0.00" timeLoss="5.61" rerouteNo="0" devices="tripinfo_7 emissions_7" vType="passenger" speedFactor="0.89" vaporized="">
        <emissions CO_abs="1839.362895" CO2_abs="282365.852785" HC_abs="14.261924" PMx_abs="2.715533" NOx_abs="97.914182" fuel_abs="90062.909623" electricity_abs="0"/>
    </tripinfo>
    <tripinfo id="19" depart="14.00" departLane="E_1" departPos="5.10" departSpeed="16.09" departDelay="0.00" arrival="140.00" arrivalLane="-W_1" arrivalPos="783.20" arrivalSpeed="15.77" duration="126.00" routeLength="1594.90" waitingTime="14.00" waitingCount="1" stopTime="0.00" timeLoss="26.03" rerouteNo="0" devices="tripinfo_19 emissions_19" vType="passenger" speedFactor="1.16" vaporized="">
        <emissions CO_abs="4648.163615" CO2_abs="336331.316420" HC_abs="27.738014" PMx_abs="4.722116" NOx_abs="122.954373" fuel_abs="107275.479195" electricity_abs="0"/>
    </tripinfo>
    <tripinfo id="30" depart="24.00" departLane="E_2" departPos="5.10" departSpeed="16.37" departDelay="0.00" arrival="141.00" arrivalLane="-W_1" arrivalPos="783.20" arrivalSpeed="15.98" duration="117.00" routeLength="1594.90" waitingTime="9.00" waitingCount="1" stopTime="0.00" timeLoss="19.33" rerouteNo="0" devices="tripinfo_30 emissions_30" vType="passenger" speedFactor="1.18" vaporized="">
        <emissions CO_abs="3702.107153" CO2_abs="322588.338187" HC_abs="22.945308" PMx_abs="4.433661" NOx_abs="116.879790" fuel_abs="102891.660316" electricity_abs="0"/>
    </tripinfo>
    <tripinfo id="28" depart="23.00" departLane="E_3" departPos="5.10" departSpeed="15.72" departDelay="0.00" arrival="142.00" arrivalLane="-W_2" arrivalPos="783.20" arrivalSpeed="14.90" duration="119.00" routeLength="1594.90" waitingTime="4.00" waitingCount="1" stopTime="0.00" timeLoss="16.63" rerouteNo="0" devices="tripinfo_28 emissions_28" vType="passenger" speedFactor="1.13" vaporized="">
        <emissions CO_abs="3084.721077" CO2_abs="309574.517665" HC_abs="20.126348" PMx_abs="4.100653" NOx_abs="111.392564" fuel_abs="98740.765714" electricity_abs="0"/>
    </tripinfo>
    <tripinfo id="33" depart="29.00" departLane="E_1" departPos="5.10" departSpeed="16.28" departDelay="0.00" arrival="142.00" arrivalLane="-W_3" arrivalPos="783.20" arrivalSpeed="16.21" duration="113.00" routeLength="1594.90" waitingTime="1.00" waitingCount="1" stopTime="0.00" timeLoss="14.62" rerouteNo="0" devices="tripinfo_33 emissions_33" vType="passenger" speedFactor="1.17" vaporized="">
        <emissions CO_abs="2533.933285" CO2_abs="298420.074856" HC_abs="17.002312" PMx_abs="3.739323" NOx_abs="104.674678" fuel_abs="95182.892218" electricity_abs="0"/>
    </tripinfo>
    <tripinfo id="10" depart="5.00" departLane="W_1" departPos="5.10" departSpeed="15.15" departDelay="0.00" arrival="143.00" arrivalLane="-E_0" arrivalPos="783.20" arrivalSpeed="14.32" duration="138.00" routeLength="1594.90" waitingTime="22.00" waitingCount="1" stopTime="0.00" timeLoss="32.31" rerouteNo="0" devices="tripinfo_10 emissions_10" vType="passenger" speedFactor="1.09" vaporized="">
        <emissions CO_abs="5625.347394" CO2_abs="348901.826952" HC_abs="32.581894" PMx_abs="4.915066" NOx_abs="128.662697" fuel_abs="111285.426160" electricity_abs="0"/>
    </tripinfo>
    <tripinfo id="3" depart="1.00" departLane="E_1" departPos="5.10" departSpeed="15.04" departDelay="0.00" arrival="144.00" arrivalLane="-W_1" arrivalPos="783.20" arrivalSpeed="15.00" duration="143.00" routeLength="1594.90" waitingTime="24.00" waitingCount="1" stopTime="0.00" timeLoss="36.00" rerouteNo="0" devices="tripinfo_3 emissions_3" vType="passenger" speedFactor="1.08" vaporized="">
        <emissions CO_abs="6291.470388" CO2_abs="358683.300608" HC_abs="35.556614" PMx_abs="5.111933" NOx_abs="132.926217" fuel_abs="114405.530669" electricity_abs="0"/>
    </tripinfo>
    <tripinfo id="8" depart="3.00" departLane="N_3" departPos="5.10" departSpeed="13.03" departDelay="0.00" arrival="144.00" arrivalLane="-W_0" arrivalPos="783.20" arrivalSpeed="12.67" duration="141.00" routeLength="1592.81" waitingTime="6.00" waitingCount="1" stopTime="0.00" timeLoss="17.54" rerouteNo="0" devices="tripinfo_8 emissions_8" vType="passenger" speedFactor="0.94" vaporized="">
        <emissions CO_abs="3415.795595" CO2_abs="315700.379821" HC_abs="21.907353" PMx_abs="3.597237" NOx_abs="112.577513" fuel_abs="100695.437298" electricity_abs="0"/>
    </tripinfo>
    <tripinfo id="6" depart="2.00" departLane="E_2" departPos="5.10" departSpeed="14.53" departDelay="0.00" arrival="147.00" arrivalLane="-W_0" arrivalPos="783.20" arrivalSpeed="14.11" duration="145.00" routeLength="1594.90" waitingTime="24.00" waitingCount="1" stopTime="0.00" timeLoss="34.93" rerouteNo="0" devices="tripinfo_6 emissions_6" vType="passenger" speedFactor="1.05" vaporized="">
        <emissions CO_abs="6023.126610" CO2_abs="358703.451851" HC_abs="34.408999" PMx_abs="4.940195" NOx_abs="132.172732" fuel_abs="114412.003304" electricity_abs="0"/>
    </tripinfo>
    <tripinfo id="14" depart="9.00" departLane="W_2" departPos="5.10" departSpeed="13.77" departDelay="0.00" arrival="148.00" arrivalLane="-E_0" arrivalPos="783.20" arrivalSpeed="13.56" duration="139.00" routeLength="1594.90" waitingTime="12.00" waitingCount="1" stopTime="0.00" timeLoss="22.85" rerouteNo="0" devices="tripinfo_14 emissions_14" vType="passenger" speedFactor="0.99" vaporized="">
        <emissions CO_abs="4273.615080" CO2_abs="321306.318535" HC_abs="25.876031" PMx_abs="4.102043" NOx_abs="117.034711" fuel_abs="102483.482774" electricity_abs="0"/>
    </tripinfo>
    <tripinfo id="0" depart="0.00" departLane="E_0" departPos="5.10" departSpeed="14.72" departDelay="0.00" arrival="149.00" arrivalLane="-W_1" arrivalPos="783.20" arrivalSpeed="14.07" duration="149.00" routeLength="1594.90" waitingTime="26.00" waitingCount="1" stopTime="0.00" timeLoss="39.75" rerouteNo="0" devices="tripinfo_0 emissions_0" vType="passenger" speedFactor="1.06" vaporized="">
        <emissions CO_abs="6693.717350" CO2_abs="363733.274829" HC_abs="38.073454" PMx_abs="5.427934" NOx_abs="137.873485" fuel_abs="116016.190657" electricity_abs="0"/>
    </tripinfo>
    <tripinfo id="42" depart="39.00" departLane="E_3" departPos="5.10" departSpeed="15.17" departDelay="0.00" arrival="149.00" arrivalLane="-W_3" arrivalPos="783.20" arrivalSpeed="14.97" duration="110.00" routeLength="1594.90" waitingTime="0.00" waitingCount="0" stopTime="0.00" timeLoss="4.54" rerouteNo="0" devices="tripinfo_42 emissions_42" vType="passenger" speedFactor="1.09" vaporized="">
        <emissions CO_abs="1244.801369" CO2_abs="260147.490440" HC_abs="10.295855" PMx_abs="2.897142" NOx_abs="89.670069" fuel_abs="82975.436736" electricity_abs="0"/>
    </tripinfo>
    <tripinfo id="51" depart="46.00" departLane="W_0" departPos="5.10" departSpeed="16.24" departDelay="0.00" arrival="149.00" arrivalLane="-N_0" arrivalPos="780.00" arrivalSpeed="15.83" duration="103.00" routeLength="1567.13" waitingTime="0.00" waitingCount="0" stopTime="0.00" timeLoss="5.72" rerouteNo="0" devices="tripinfo_51 emissions_51" vType="passenger" speedFactor="1.17" vaporized="">
        <emissions CO_abs="1420.226400" CO2_abs="266761.102924" HC_abs="11.221881" PMx_abs="3.151073" NOx_abs="92.264797" fuel_abs="85084.755536" electricity_abs="0"/>
    </tripinfo>
    <tripinfo id="32" depart="28.00" departLane="E_0" departPos="5.10" departSpeed="13.96" departDelay="0.00" arrival="151.00" arrivalLane="-W_1" arrivalPos="783.20" arrivalSpeed="13.88" duration="123.00" routeLength="1594.90" waitingTime="0.00" waitingCount="0" stopTime="0.00" timeLoss="8.42" rerouteNo="0" devices="tripinfo_32 emissions_32" vType="passenger" speedFactor="1.01" vaporized="">
        <emissions CO_abs="1690.076397" CO2_abs="278641.732195" HC_abs="13.124913" PMx_abs="3.035637" NOx_abs="96.992255" fuel_abs="88874.595342" electricity_abs="0"/>
    </tripinfo>
    <tripinfo id="45" depart="41.00" departLane="E_2" departPos="5.10" departSpeed="15.11" departDelay="0.00" arrival="151.00" arrivalLane="-W_3" arrivalPos="783.20" arrivalSpeed="15.07" duration="110.00" routeLength="1594.90" waitingTime="0.00" waitingCount="0" stopTime="0.00" timeLoss="4.15" rerouteNo="0" devices="tripinfo_45 emissions_45" vType="passenger" speedFactor="1.09" vaporized="">
        <emissions CO_abs="1206.599774" CO2_abs="258583.773031" HC_abs="10.144717" PMx_abs="2.849034" NOx_abs="88.120692" fuel_abs="82476.748308" electricity_abs="0"/>
    </tripinfo>
    <tripinfo id="21" depart="15.00" departLane="E_2" departPos="5.10" departSpeed="14.03" departDelay="0.00" arrival="152.00" arrivalLane="-W_0" arrivalPos="783.20" arrivalSpeed="13.46" duration="137.00" routeLength="1594.90" waitingTime="9.00" waitingCount="1" stopTime="0.00" timeLoss="22.44" rerouteNo="0" devices="tripinfo_21 emissions_21" vType="passenger" speedFactor="1.01" vaporized="">
        <emissions CO_abs="3925.877747" CO2_abs="311070.804071" HC_abs="24.031546" PMx_abs="4.003984" NOx_abs="113.465663" fuel_abs="99218.598005" electricity_abs="0"/>
    </tripinfo>
    <tripinfo id="27" depart="23.00" departLane="W_4" departPos="5.10" departSpeed="13.18" departDelay="0.00" arrival="152.00" arrivalLane="-E_1" arrivalPos="783.20" arrivalSpeed="12.64" duration="129.00" routeLength="1594.90" waitingTime="0.00" waitingCount="0" stopTime="0.00" timeLoss="7.74" rerouteNo="0" devices="tripinfo_27 emissions_27" vType="passenger" speedFactor="0.95" vaporized="">
        <emissions CO_abs="1796.640809" CO2_abs="282182.496583" HC_abs="13.544849" PMx_abs="2.914107" NOx_abs="98.241512" fuel_abs="90004.140536" electricity_abs="0"/>
    </tripinfo>
    <tripinfo id="35" depart="34.00" departLane="W_1" departPos="5.10" departSpeed="14.16" departDelay="0.00" arrival="152.00" arrivalLane="-E_0" arrivalPos="783.20" arrivalSpeed="14.06" duration="118.00" routeLength="1594.90" waitingTime="0.00" waitingCount="0" stopTime="0.00" timeLoss="4.54" rerouteNo="0" devices="tripinfo_35 emissions_35" vType="passenger" speedFactor="1.02" vaporized="">
        <emissions CO_abs="1454.641550" CO2_abs="271834.452612" HC_abs="11.568632" PMx_abs="2.927159" NOx_abs="93.413495" fuel_abs="86703.293939" electricity_abs="0"/>
    </tripinfo>
    <tripinfo id="26" depart="21.00" departLane="W_3" departPos="5.10" departSpeed="12.74" departDelay="0.00" arrival="153.00" arrivalLane="-E_0" arrivalPos="783.20" arrivalSpeed="12.09" duration="132.00" routeLength="1594.90" waitingTime="0.00" waitingCount="0" stopTime="0.00" timeLoss="6.77" rerouteNo="0" devices="tripinfo_26 emissions_26" vType="passenger" speedFactor="0.92" vaporized="">
        <emissions CO_abs="1772.717485" CO2_abs="275314.930784" HC_abs="13.642047" PMx_abs="2.786607" NOx_abs="95.902452" fuel_abs="87813.797286" electricity_abs="0"/>
    </tripinfo>
    <tripinfo id="5" depart="2.00" departLane="N_2" departPos="5.10" departSpeed="11.54" departDelay="0.00" arrival="154.00" arrivalLane="-W_0" arrivalPos="783.20" arrivalSpeed="10.75" duration="152.00" routeLength="1592.81" waitingTime="1.00" waitingCount="1" stopTime="0.00" timeLoss="12.89" rerouteNo="0" devices="tripinfo_5 emissions_5" vType="passenger" speedFactor="0.83" vaporized="">
        <emissions CO_abs="3442.788987" CO2_abs="313800.249390" HC_abs="22.651540" PMx_abs="3.360361" NOx_abs="112.596902" fuel_abs="100089.597751" electricity_abs="0"/>
    </tripinfo>
    <tripinfo id="15" depart="9.00" departLane="E_3" departPos="5.10" departSpeed="12.87" departDelay="0.00" arrival="154.00" arrivalLane="-W_1" arrivalPos="783.20" arrivalSpeed="12.87" duration="145.00" routeLength="1594.90" waitingTime="10.00" waitingCount="1" stopTime="0.00" timeLoss="20.87" rerouteNo="0" devices="tripinfo_15 emissions_15" vType="passenger" speedFactor="0.93" vaporized="">
        <emissions CO_abs="4059.187900" CO2_abs="323619.472751" HC_abs="25.308718" PMx_abs="3.930352" NOx_abs="117.678942" fuel_abs="103221.371845" electricity_abs="0"/>
    </tripinfo>
    <tripinfo id="44" depart="41.00" departLane="W_3" departPos="5.10" departSpeed="14.49" departDelay="0.00" arrival="155.00" arrivalLane="-E_1" arrivalPos="783.20" arrivalSpeed="14.12" duration="114.00" routeLength="1594.90" waitingTime="0.00" waitingCount="0" stopTime="0.00" timeLoss="3.75" rerouteNo="0" devices="tripinfo_44 emissions_44" vType="passenger" speedFactor="1.04" vaporized="">
        <emissions CO_abs="1051.647200" CO2_abs="260245.021663" HC_abs="9.443960" PMx_abs="2.582319" NOx_abs="87.563657" fuel_abs="83006.811680" electricity_abs="0"/>
    </tripinfo>
    <tripinfo id="57" depart="49.00" departLane="E_2" departPos="5.10" departSpeed="15.87" departDelay="0.00" arrival="156.00" arrivalLane="-W_2" arrivalPos="783.20" arrivalSpeed="15.00" duration="107.00" routeLength="1594.90" waitingTime="0.00" waitingCount="0" stopTime="0.00" timeLoss="5.56" rerouteNo="0" devices="tripinfo_57 emissions_57" vType="passenger" speedFactor="1.14" vaporized="">
        <emissions CO_abs="949.781305" CO2_abs="260997.776213" HC_abs="8.385863" PMx_abs="2.598451" NOx_abs="85.991246" fuel_abs="83246.784975" electricity_abs="0"/>
    </tripinfo>
    <tripinfo id="16" depart="13.00" departLane="W_3" departPos="5.10" departSpeed="12.20" departDelay="0.00" arrival="158.00" arrivalLane="-E_0" arrivalPos="783.20" arrivalSpeed="11.57" duration="145.00" routeLength="1594.90" waitingTime="1.00" waitingCount="1" stopTime="0.00" timeLoss="14.19" rerouteNo="0" devices="tripinfo_16 emissions_16" vType="passenger" speedFactor="0.88" vaporized="">
        <emissions CO_abs="3000.802287" CO2_abs="307888.686912" HC_abs="20.256845" PMx_abs="3.291388" NOx_abs="109.455832" fuel_abs="98203.862283" electricity_abs="0"/>
    </tripinfo>
    <tripinfo id="43" depart="40.00" departLane="W_1" departPos="5.10" departSpeed="14.42" departDelay="0.00" arrival="158.00" arrivalLane="-E_2" arrivalPos="783.20" arrivalSpeed="14.30" duration="118.00" routeLength="1594.90" waitingTime="0.00" waitingCount="0" stopTime="0.00" timeLoss="6.45" rerouteNo="0" devices="tripinfo_43 emissions_43" vType="passenger" speedFactor="1.04" vaporized="">
        <emissions CO_abs="1462.888643" CO2_abs="268033.336000" HC_abs="11.702089" PMx_abs="2.945602" NOx_abs="92.796665" fuel_abs="85490.855511" electricity_abs="0"/>
    </tripinfo>
    <tripinfo id="61" depart="51.00" departLane="E_1" departPos="5.10" departSpeed="15.55" departDelay="0.00" arrival="158.00" arrivalLane="-W_2" arrivalPos="783.20" arrivalSpeed="15.21" duration="107.00" routeLength="1594.90" waitingTime="0.00" waitingCount="0" stopTime="0.00" timeLoss="3.55" rerouteNo="0" devices="tripinfo_61 emissions_61" vType="passenger" speedFactor="1.12" vaporized="">
        <emissions CO_abs="1091.804955" CO2_abs="268192.431305" HC_abs="9.844654" PMx_abs="2.957889" NOx_abs="91.206183" fuel_abs="85541.391273" electricity_abs="0"/>
    </tripinfo>
    <tripinfo id="17" depart="13.00" departLane="E_0" departPos="5.10" departSpeed="13.08" departDelay="0.00" arrival="159.00" arrivalLane="-W_0" arrivalPos="783.20" arrivalSpeed="12.53" duration="146.00" routeLength="1594.90" waitingTime="10.00" waitingCount="1" stopTime="0.00" timeLoss="23.25" rerouteNo="0" devices="tripinfo_17 emissions_17" vType="passenger" speedFactor="0.94" vaporized="">
        <emissions CO_abs="4317.899378" CO2_abs="321555.862628" HC_abs="26.382430" PMx_abs="4.148575" NOx_abs="118.872078" fuel_abs="102563.017888" electricity_abs="0"/>
    </tripinfo>
    <tripinfo id="23" depart="18.00" departLane="W_2" departPos="5.10" departSpeed="12.36" departDelay="0.00" arrival="159.00" arrivalLane="-E_1" arrivalPos="783.20" arrivalSpeed="11.67" duration="141.00" routeLength="1594.90" waitingTime="0.00" waitingCount="0" stopTime="0.00" timeLoss="11.55" rerouteNo="0" devices="tripinfo_23 emissions_23" vType="passenger" speedFactor="0.89" vaporized="">
        <emissions CO_abs="2711.537165" CO2_abs="302684.858413" HC_abs="18.822048" PMx_abs="3.321252" NOx_abs="108.039752" fuel_abs="96543.812703" electricity_abs="0"/>
    </tripinfo>
    <tripinfo id="34" depart="32.00" departLane="W_4" departPos="5.10" departSpeed="13.82" departDelay="0.00" arrival="160.00" arrivalLane="-E_0" arrivalPos="783.20" arrivalSpeed="13.26" duration="128.00" routeLength="1594.90" waitingTime="0.00" waitingCount="0" stopTime="0.00" timeLoss="12.08" rerouteNo="0" devices="tripinfo_34 emissions_34" vType="passenger" speedFactor="0.99" vaporized="">
        <emissions CO_abs="1660.195558" CO2_abs="284971.461204" HC_abs="13.253425" PMx_abs="2.895699" NOx_abs="98.757306" fuel_abs="90893.722279" electricity_abs="0"/>
    </tripinfo>
    <tripinfo id="36" depart="35.00" departLane="W_2" departPos="5.10" departSpeed="13.52" departDelay="0.00" arrival="160.00" arrivalLane="-E_2" arrivalPos="783.20" arrivalSpeed="13.50" duration="125.00" routeLength="1594.90" waitingTime="0.00" waitingCount="0" stopTime="0.00" timeLoss="6.36" rerouteNo="0" devices="tripinfo_36 emissions_36" vType="passenger" speedFactor="0.97" vaporized="">
        <emissions CO_abs="1521.797509" CO2_abs="274467.644724" HC_abs="12.215741" PMx_abs="2.806810" NOx_abs="94.399733" fuel_abs="87543.379980" electricity_abs="0"/>
    </tripinfo>
    <tripinfo id="9" depart="3.00" departLane="E_3" departPos="5.10" departSpeed="11.90" departDelay="0.00" arrival="162.00" arrivalLane="-W_0" arrivalPos="783.20" arrivalSpeed="11.80" duration="159.00" routeLength="1594.90" waitingTime="12.00" waitingCount="1" stopTime="0.00" timeLoss="24.06" rerouteNo="0" devices="tripinfo_9 emissions_9" vType="passenger" speedFactor="0.86" vaporized="">
        <emissions CO_abs="4893.703281" CO2_abs="338465.790525" HC_abs="29.696410" PMx_abs="4.139758" NOx_abs="124.425960" fuel_abs="107957.089784" electricity_abs="0"/>
    </tripinfo>
    <tripinfo id="46" depart="42.00" departLane="W_2" departPos="5.10" departSpeed="13.85" departDelay="0.00" arrival="162.00" arrivalLane="-E_0" arrivalPos="783.20" arrivalSpeed="13.30" duration="120.00" routeLength="1594.90" waitingTime="0.00" waitingCount="0" stopTime="0.00" timeLoss="4.16" rerouteNo="0" devices="tripinfo_46 emissions_46" vType="passenger" speedFactor="1.00" vaporized="">
        <emissions CO_abs="1378.326840" CO2_abs="262360.739855" HC_abs="11.338708" PMx_abs="2.792454" NOx_abs="90.676949" fuel_abs="83681.624426" electricity_abs="0"/>
    </tripinfo>
    <tripinfo id="54" depart="48.00" departLane="E_3" departPos="5.10" departSpeed="13.93" departDelay="0.00" arrival="167.00" arrivalLane="-W_0" arrivalPos="783.20" arrivalSpeed="13.83" duration="119.00" routeLength="1594.90" waitingTime="0.00" waitingCount="0" stopTime="0.00" timeLoss="4.16" rerouteNo="0" devices="tripinfo_54 emissions_54" vType="passenger" speedFactor="1.00" vaporized="">
        <emissions CO_abs="1044.183325" CO2_abs="257462.148934" HC_abs="9.478413" PMx_abs="2.417279" NOx_abs="86.324577" fuel_abs="82119.369797" electricity_abs="0"/>
    </tripinfo>
    <tripinfo id="39" depart="37.00" departLane="W_4" departPos="5.10" departSpeed="12.51" departDelay="0.00" arrival="170.00" arrivalLane="-E_0" arrivalPos="783.20" arrivalSpeed="11.79" duration="133.00" routeLength="1594.90" waitingTime="0.00" waitingCount="0" stopTime="0.00" timeLoss="5.42" rerouteNo="0" devices="tripinfo_39 emissions_39" vType="passenger" speedFactor="0.90" vaporized="">
        <emissions CO_abs="1505.543022" CO2_abs="267792.161832" HC_abs="12.163602" PMx_abs="2.389278" NOx_abs="90.941790" fuel_abs="85414.608353" electricity_abs="0"/>
    </tripinfo>
    <tripinfo id="62" depart="52.00" departLane="W_2" departPos="5.10" departSpeed="14.11" departDelay="0.00" arrival="170.00" arrivalLane="-E_1" arrivalPos="783.20" arrivalSpeed="13.29" duration="118.00" routeLength="1594.90" waitingTime="0.00" waitingCount="0" stopTime="0.00" timeLoss="4.08" rerouteNo="0" devices="tripinfo_62 emissions_62" vType="passenger" speedFactor="1.02" vaporized="">
        <emissions CO_abs="967.193434" CO2_abs="267767.947073" HC_abs="9.161141" PMx_abs="2.427010" NOx_abs="88.830097" fuel_abs="85406.495240" electricity_abs="0"/>
    </tripinfo>
    <tripinfo id="73" depart="58.00" departLane="E_3" departPos="5.10" departSpeed="14.66" departDelay="0.00" arrival="171.00" arrivalLane="-W_1" arrivalPos="783.20" arrivalSpeed="14.31" duration="113.00" routeLength="1594.90" waitingTime="0.00" waitingCount="0" stopTime="0.00" timeLoss="4.15" rerouteNo="0" devices="tripinfo_73 emissions_73" vType="passenger" speedFactor="1.06" vaporized="">
        <emissions CO_abs="1157.713172" CO2_abs="258328.041331" HC_abs="9.911455" PMx_abs="2.710650" NOx_abs="88.013911" fuel_abs="82395.273789" electricity_abs="0"/>
    </tripinfo>
    <tripinfo id="69" depart="55.00" departLane="E_1" departPos="5.10" departSpeed="14.20" departDelay="0.00" arrival="172.00" arrivalLane="-W_0" arrivalPos="783.20" arrivalSpeed="13.62" duration="117.00" routeLength="1594.90" waitingTime="0.00" waitingCount="0" stopTime="0.00" timeLoss="3.94" rerouteNo="0" devices="tripinfo_69 emissions_69" vType="passenger" speedFactor="1.02" vaporized="">
        <emissions CO_abs="1135.322959" CO2_abs="258658.347093" HC_abs="9.877925" PMx_abs="2.596949" NOx_abs="87.448240" fuel_abs="82500.776984" electricity_abs="0"/>
    </tripinfo>
    <tripinfo id="47" depart="42.00" departLane="E_1" departPos="5.10" departSpeed="12.51" departDelay="0.00" arrival="175.00" arrivalLane="-W_0" arrivalPos="783.20" arrivalSpeed="12.49" duration="133.00" routeLength="1594.90" waitingTime="0.00" waitingCount="0" stopTime="0.00" timeLoss="4.78" rerouteNo="0" devices="tripinfo_47 emissions_47" vType="passenger" speedFactor="0.90" vaporized="">
        <emissions CO_abs="1501.822109" CO2_abs="271505.295340" HC_abs="12.395804" PMx_abs="2.458341" NOx_abs="92.514505" fuel_abs="86598.888814" electricity_abs="0"/>
    </tripinfo>
    <tripinfo id="63" depart="52.00" departLane="E_0" departPos="5.10" departSpeed="13.71" departDelay="0.00" arrival="176.00" arrivalLane="-W_0" arrivalPos="783.20" arrivalSpeed="13.06" duration="124.00" routeLength="1594.90" waitingTime="0.00" waitingCount="0" stopTime="0.00" timeLoss="7.66" rerouteNo="0" devices="tripinfo_63 emissions_63" vType="passenger" speedFactor="0.99" vaporized="">
        <emissions CO_abs="1456.603841" CO2_abs="265148.373034" HC_abs="11.838102" PMx_abs="2.728540" NOx_abs="91.509615" fuel_abs="84570.911306" electricity_abs="0"/>
    </tripinfo>
    <tripinfo id="79" depart="66.00" departLane="E_0" departPos="5.10" departSpeed="15.10" departDelay="0.00" arrival="176.00" arrivalLane="-W_1" arrivalPos="783.20" arrivalSpeed="14.20" duration="110.00" routeLength="1594.90" waitingTime="0.00" waitingCount="0" stopTime="0.00" timeLoss="3.53" rerouteNo="0" devices="tripinfo_79 emissions_79" vType="passenger" speedFactor="1.09" vaporized="">
        <emissions CO_abs="1323.255021" CO2_abs="262392.624281" HC_abs="10.694924" PMx_abs="2.990581" NOx_abs="90.550344" fuel_abs="83691.508066" electricity_abs="0"/>
    </tripinfo>