<?xml version="1.0" encoding="UTF-8"?>

<!-- generated on 2023-07-20 19:11:15 by Eclipse SUMO sumo Version 1.17.0
<configuration xmlns:xsi="http://www.w3.org/2001/XMLSchema-instance" xsi:noNamespaceSchemaLocation="http://sumo.dlr.de/xsd/sumoConfiguration.xsd">

    <input>
        <net-file value="Data0-0\intersection.net.xml"/>
        <route-files value="Data0-0\intersection.rou.xml"/>
        <additional-files value="Data0-0\intersection.det.xml"/>
    </input>

    <output>
        <tripinfo-output value="Data0-0\tripinfo.xml"/>
    </output>

    <time>
        <begin value="0"/>
    </time>

    <processing>
        <time-to-teleport value="-1"/>
        <waiting-time-memory value="60000"/>
    </processing>

    <report>
        <verbose value="true"/>
        <no-step-log value="true"/>
    </report>

    <emissions>
        <device.emissions.probability value="1.0"/>
    </emissions>

    <traci_server>
        <remote-port value="49846"/>
    </traci_server>

    <gui_only>
        <gui-settings-file value="Data0-0\intersection.settings.xml"/>
    </gui_only>

</configuration>
-->

<tripinfos xmlns:xsi="http://www.w3.org/2001/XMLSchema-instance" xsi:noNamespaceSchemaLocation="http://sumo.dlr.de/xsd/tripinfo_file.xsd">
    <tripinfo id="4" depart="4.00" departLane="S_1" departPos="5.10" departSpeed="14.31" departDelay="0.00" arrival="120.00" arrivalLane="-N_0" arrivalPos="780.00" arrivalSpeed="14.22" duration="116.00" routeLength="1595.43" waitingTime="0.00" waitingCount="0" stopTime="0.00" timeLoss="3.77" rerouteNo="0" devices="tripinfo_4 emissions_4" vType="passenger" speedFactor="1.03" vaporized="">
        <emissions CO_abs="1150.528068" CO2_abs="260702.626289" HC_abs="9.690605" PMx_abs="2.565116" NOx_abs="87.357765" fuel_abs="83152.836963" electricity_abs="0"/>
    </tripinfo>
    <tripinfo id="2" depart="3.00" departLane="S_0" departPos="5.10" departSpeed="14.03" departDelay="0.00" arrival="121.00" arrivalLane="-N_1" arrivalPos="780.00" arrivalSpeed="13.77" duration="118.00" routeLength="1595.43" waitingTime="0.00" waitingCount="0" stopTime="0.00" timeLoss="4.19" rerouteNo="0" devices="tripinfo_2 emissions_2" vType="passenger" speedFactor="1.01" vaporized="">
        <emissions CO_abs="1075.738380" CO2_abs="253786.459439" HC_abs="9.071420" PMx_abs="2.342593" NOx_abs="84.402332" fuel_abs="80947.009442" electricity_abs="0"/>
    </tripinfo>
    <tripinfo id="6" depart="5.00" departLane="S_0" departPos="5.10" departSpeed="14.53" departDelay="0.00" arrival="121.00" arrivalLane="-N_2" arrivalPos="780.00" arrivalSpeed="14.12" duration="116.00" routeLength="1595.43" waitingTime="0.00" waitingCount="0" stopTime="0.00" timeLoss="5.28" rerouteNo="0" devices="tripinfo_6 emissions_6" vType="passenger" speedFactor="1.05" vaporized="">
        <emissions CO_abs="1213.648228" CO2_abs="260525.642374" HC_abs="10.291285" PMx_abs="2.726079" NOx_abs="89.174180" fuel_abs="83096.245086" electricity_abs="0"/>
    </tripinfo>
    <tripinfo id="10" depart="7.00" departLane="S_0" departPos="5.10" departSpeed="15.15" departDelay="0.00" arrival="121.00" arrivalLane="-W_0" arrivalPos="783.20" arrivalSpeed="14.39" duration="114.00" routeLength="1570.33" waitingTime="0.00" waitingCount="0" stopTime="0.00" timeLoss="9.20" rerouteNo="0" devices="tripinfo_10 emissions_10" vType="passenger" speedFactor="1.09" vaporized="">
        <emissions CO_abs="1885.215372" CO2_abs="290452.519190" HC_abs="14.233502" PMx_abs="3.540644" NOx_abs="103.310685" fuel_abs="92641.373984" electricity_abs="0"/>
    </tripinfo>
    <tripinfo id="11" depart="8.00" departLane="W_0" departPos="5.10" departSpeed="4.61" departDelay="0.00" arrival="128.00" arrivalLane="-N_0" arrivalPos="780.00" arrivalSpeed="13.62" duration="120.00" routeLength="1567.13" waitingTime="0.00" waitingCount="0" stopTime="0.00" timeLoss="8.92" rerouteNo="0" devices="tripinfo_11 emissions_11" vType="passenger" speedFactor="1.03" vaporized="">
        <emissions CO_abs="2271.396080" CO2_abs="296500.882081" HC_abs="16.331236" PMx_abs="3.764626" NOx_abs="107.515947" fuel_abs="94570.547612" electricity_abs="0"/>
    </tripinfo>
    <tripinfo id="14" depart="9.00" departLane="S_2" departPos="5.10" departSpeed="13.77" departDelay="0.00" arrival="131.00" arrivalLane="-E_0" arrivalPos="783.20" arrivalSpeed="12.89" duration="122.00" routeLength="1598.14" waitingTime="0.00" waitingCount="0" stopTime="0.00" timeLoss="5.56" rerouteNo="0" devices="tripinfo_14 emissions_14" vType="passenger" speedFactor="0.99" vaporized="">
        <emissions CO_abs="1407.113050" CO2_abs="270979.168805" HC_abs="11.463098" PMx_abs="2.739227" NOx_abs="92.997517" fuel_abs="86430.654352" electricity_abs="0"/>
    </tripinfo>
    <tripinfo id="31" depart="25.00" departLane="N_3" departPos="5.10" departSpeed="16.03" departDelay="0.00" arrival="133.00" arrivalLane="-W_1" arrivalPos="783.20" arrivalSpeed="15.60" duration="108.00" routeLength="1588.47" waitingTime="0.00" waitingCount="0" stopTime="0.00" timeLoss="7.68" rerouteNo="0" devices="tripinfo_31 emissions_31" vType="passenger" speedFactor="1.15" vaporized="">
        <emissions CO_abs="1726.755160" CO2_abs="281120.485974" HC_abs="13.134218" PMx_abs="3.487875" NOx_abs="98.690528" fuel_abs="89664.722958" electricity_abs="0"/>
    </tripinfo>
    <tripinfo id="28" depart="24.00" departLane="W_0" departPos="5.10" departSpeed="15.72" departDelay="0.00" arrival="134.00" arrivalLane="-N_0" arrivalPos="780.00" arrivalSpeed="15.40" duration="110.00" routeLength="1567.13" waitingTime="0.00" waitingCount="0" stopTime="0.00" timeLoss="8.91" rerouteNo="0" devices="tripinfo_28 emissions_28" vType="passenger" speedFactor="1.13" vaporized="">
        <emissions CO_abs="1579.090625" CO2_abs="268800.083166" HC_abs="11.900145" PMx_abs="3.060753" NOx_abs="92.300983" fuel_abs="85735.330744" electricity_abs="0"/>
    </tripinfo>
    <tripinfo id="3" depart="4.00" departLane="N_2" departPos="5.10" departSpeed="15.04" departDelay="0.00" arrival="135.00" arrivalLane="-W_0" arrivalPos="783.20" arrivalSpeed="14.49" duration="131.00" routeLength="1592.81" waitingTime="13.00" waitingCount="1" stopTime="0.00" timeLoss="24.10" rerouteNo="0" devices="tripinfo_3 emissions_3" vType="passenger" speedFactor="1.08" vaporized="">
        <emissions CO_abs="4188.260641" CO2_abs="322837.446624" HC_abs="24.794355" PMx_abs="4.077658" NOx_abs="114.812394" fuel_abs="102971.813385" electricity_abs="0"/>
    </tripinfo>
    <tripinfo id="12" depart="8.00" departLane="N_3" departPos="5.10" departSpeed="14.54" departDelay="0.00" arrival="135.00" arrivalLane="-W_1" arrivalPos="783.20" arrivalSpeed="14.37" duration="127.00" routeLength="1588.47" waitingTime="8.00" waitingCount="1" stopTime="0.00" timeLoss="17.40" rerouteNo="0" devices="tripinfo_12 emissions_12" vType="passenger" speedFactor="1.05" vaporized="">
        <emissions CO_abs="3366.519778" CO2_abs="312399.757654" HC_abs="21.225991" PMx_abs="3.908040" NOx_abs="112.036026" fuel_abs="99642.232427" electricity_abs="0"/>
    </tripinfo>
    <tripinfo id="21" depart="19.00" departLane="N_1" departPos="5.10" departSpeed="14.03" departDelay="0.00" arrival="138.00" arrivalLane="-E_0" arrivalPos="783.20" arrivalSpeed="14.00" duration="119.00" routeLength="1574.95" waitingTime="0.00" waitingCount="0" stopTime="0.00" timeLoss="5.07" rerouteNo="0" devices="tripinfo_21 emissions_21" vType="passenger" speedFactor="1.01" vaporized="">
        <emissions CO_abs="1503.828212" CO2_abs="271928.593678" HC_abs="12.042087" PMx_abs="2.945037" NOx_abs="94.428915" fuel_abs="86733.328161" electricity_abs="0"/>
    </tripinfo>
    <tripinfo id="37" depart="30.00" departLane="W_3" departPos="5.10" departSpeed="16.39" departDelay="0.00" arrival="138.00" arrivalLane="-E_1" arrivalPos="783.20" arrivalSpeed="16.02" duration="108.00" routeLength="1594.90" waitingTime="0.00" waitingCount="0" stopTime="0.00" timeLoss="10.42" rerouteNo="0" devices="tripinfo_37 emissions_37" vType="passenger" speedFactor="1.18" vaporized="">
        <emissions CO_abs="1932.818245" CO2_abs="289168.463839" HC_abs="13.871219" PMx_abs="3.577779" NOx_abs="100.828736" fuel_abs="92231.763779" electricity_abs="0"/>
    </tripinfo>
    <tripinfo id="17" depart="13.00" departLane="N_0" departPos="5.10" departSpeed="13.08" departDelay="0.00" arrival="140.00" arrivalLane="-E_0" arrivalPos="783.20" arrivalSpeed="12.33" duration="127.00" routeLength="1569.83" waitingTime="0.00" waitingCount="0" stopTime="0.00" timeLoss="6.24" rerouteNo="0" devices="tripinfo_17 emissions_17" vType="passenger" speedFactor="0.94" vaporized="">
        <emissions CO_abs="1756.252417" CO2_abs="282278.085821" HC_abs="13.537607" PMx_abs="2.912089" NOx_abs="98.055144" fuel_abs="90034.659187" electricity_abs="0"/>
    </tripinfo>
    <tripinfo id="19" depart="14.00" departLane="E_0" departPos="5.10" departSpeed="16.09" departDelay="0.00" arrival="140.00" arrivalLane="-W_1" arrivalPos="783.20" arrivalSpeed="15.70" duration="126.00" routeLength="1594.90" waitingTime="6.00" waitingCount="1" stopTime="0.00" timeLoss="26.52" rerouteNo="0" devices="tripinfo_19 emissions_19" vType="passenger" speedFactor="1.16" vaporized="">
        <emissions CO_abs="3860.709687" CO2_abs="321102.463408" HC_abs="23.873867" PMx_abs="4.486334" NOx_abs="118.537344" fuel_abs="102417.707801" electricity_abs="0"/>
    </tripinfo>
    <tripinfo id="33" depart="27.00" departLane="W_2" departPos="5.10" departSpeed="16.28" departDelay="0.00" arrival="140.00" arrivalLane="-E_1" arrivalPos="783.20" arrivalSpeed="16.03" duration="113.00" routeLength="1594.90" waitingTime="1.00" waitingCount="1" stopTime="0.00" timeLoss="14.40" rerouteNo="0" devices="tripinfo_33 emissions_33" vType="passenger" speedFactor="1.17" vaporized="">
        <emissions CO_abs="2849.317479" CO2_abs="303235.176128" HC_abs="18.406749" PMx_abs="4.011605" NOx_abs="108.237890" fuel_abs="96718.593436" electricity_abs="0"/>
    </tripinfo>
    <tripinfo id="13" depart="9.00" departLane="E_1" departPos="5.10" departSpeed="15.60" departDelay="0.00" arrival="141.00" arrivalLane="-W_0" arrivalPos="783.20" arrivalSpeed="14.79" duration="132.00" routeLength="1594.90" waitingTime="18.00" waitingCount="1" stopTime="0.00" timeLoss="29.74" rerouteNo="0" devices="tripinfo_13 emissions_13" vType="passenger" speedFactor="1.12" vaporized="">
        <emissions CO_abs="5344.684109" CO2_abs="336128.781404" HC_abs="30.923282" PMx_abs="4.920892" NOx_abs="124.985348" fuel_abs="107211.061443" electricity_abs="0"/>
    </tripinfo>
    <tripinfo id="7" depart="6.00" departLane="W_0" departPos="5.10" departSpeed="12.31" departDelay="0.00" arrival="142.00" arrivalLane="-N_0" arrivalPos="780.00" arrivalSpeed="12.17" duration="136.00" routeLength="1567.13" waitingTime="0.00" waitingCount="0" stopTime="0.00" timeLoss="6.83" rerouteNo="0" devices="tripinfo_7 emissions_7" vType="passenger" speedFactor="0.89" vaporized="">
        <emissions CO_abs="2236.602767" CO2_abs="282444.227471" HC_abs="16.266968" PMx_abs="3.039442" NOx_abs="100.528594" fuel_abs="90087.771387" electricity_abs="0"/>
    </tripinfo>
    <tripinfo id="51" depart="41.00" departLane="E_3" departPos="5.10" departSpeed="16.24" departDelay="0.00" arrival="143.00" arrivalLane="-W_2" arrivalPos="783.20" arrivalSpeed="15.79" duration="102.00" routeLength="1594.90" waitingTime="0.00" waitingCount="0" stopTime="0.00" timeLoss="3.02" rerouteNo="0" devices="tripinfo_51 emissions_51" vType="passenger" speedFactor="1.17" vaporized="">
        <emissions CO_abs="735.309479" CO2_abs="254930.277645" HC_abs="7.236383" PMx_abs="2.507952" NOx_abs="82.689796" fuel_abs="81311.476248" electricity_abs="0"/>
    </tripinfo>
    <tripinfo id="45" depart="35.00" departLane="W_4" departPos="5.10" departSpeed="15.11" departDelay="0.00" arrival="144.00" arrivalLane="-E_0" arrivalPos="783.20" arrivalSpeed="14.29" duration="109.00" routeLength="1594.90" waitingTime="0.00" waitingCount="0" stopTime="0.00" timeLoss="3.35" rerouteNo="0" devices="tripinfo_45 emissions_45" vType="passenger" speedFactor="1.09" vaporized="">
        <emissions CO_abs="1058.340993" CO2_abs="250663.146753" HC_abs="9.374471" PMx_abs="2.716426" NOx_abs="85.424459" fuel_abs="79950.397091" electricity_abs="0"/>
    </tripinfo>
    <tripinfo id="18" depart="14.00" departLane="N_3" departPos="5.10" departSpeed="13.00" departDelay="0.00" arrival="145.00" arrivalLane="-W_0" arrivalPos="783.20" arrivalSpeed="12.58" duration="131.00" routeLength="1592.81" waitingTime="0.00" waitingCount="0" stopTime="0.00" timeLoss="7.49" rerouteNo="0" devices="tripinfo_18 emissions_18" vType="passenger" speedFactor="0.94" vaporized="">
        <emissions CO_abs="1915.832810" CO2_abs="285898.878241" HC_abs="14.482879" PMx_abs="3.016794" NOx_abs="100.122466" fuel_abs="91189.532884" electricity_abs="0"/>
    </tripinfo>
    <tripinfo id="38" depart="30.00" departLane="E_2" departPos="5.10" departSpeed="15.31" departDelay="0.00" arrival="145.00" arrivalLane="-W_1" arrivalPos="783.20" arrivalSpeed="14.77" duration="115.00" routeLength="1594.90" waitingTime="0.00" waitingCount="0" stopTime="0.00" timeLoss="10.28" rerouteNo="0" devices="tripinfo_38 emissions_38" vType="passenger" speedFactor="1.10" vaporized="">
        <emissions CO_abs="2113.147377" CO2_abs="286964.425017" HC_abs="15.003955" PMx_abs="3.604239" NOx_abs="102.637279" fuel_abs="91528.793148" electricity_abs="0"/>
    </tripinfo>
    <tripinfo id="0" depart="1.00" departLane="E_0" departPos="5.10" departSpeed="14.72" departDelay="0.00" arrival="146.00" arrivalLane="-W_0" arrivalPos="783.20" arrivalSpeed="13.87" duration="145.00" routeLength="1594.90" waitingTime="23.00" waitingCount="1" stopTime="0.00" timeLoss="36.58" rerouteNo="0" devices="tripinfo_0 emissions_0" vType="passenger" speedFactor="1.06" vaporized="">
        <emissions CO_abs="6287.652518" CO2_abs="361630.099454" HC_abs="36.042556" PMx_abs="5.242555" NOx_abs="135.738449" fuel_abs="115345.329444" electricity_abs="0"/>
    </tripinfo>
    <tripinfo id="20" depart="18.00" departLane="W_1" departPos="5.10" departSpeed="14.14" departDelay="0.00" arrival="146.00" arrivalLane="-E_0" arrivalPos="783.20" arrivalSpeed="13.31" duration="128.00" routeLength="1594.90" waitingTime="5.00" waitingCount="1" stopTime="0.00" timeLoss="15.02" rerouteNo="0" devices="tripinfo_20 emissions_20" vType="passenger" speedFactor="1.02" vaporized="">
        <emissions CO_abs="3089.554294" CO2_abs="308108.977055" HC_abs="20.112152" PMx_abs="3.786592" NOx_abs="110.527760" fuel_abs="98273.621961" electricity_abs="0"/>
    </tripinfo>
    <tripinfo id="9" depart="7.00" departLane="W_0" departPos="5.10" departSpeed="9.22" departDelay="0.00" arrival="148.00" arrivalLane="-N_0" arrivalPos="780.00" arrivalSpeed="11.78" duration="141.00" routeLength="1567.13" waitingTime="0.00" waitingCount="0" stopTime="0.00" timeLoss="7.92" rerouteNo="0" devices="tripinfo_9 emissions_9" vType="passenger" speedFactor="0.86" vaporized="">
        <emissions CO_abs="2509.488893" CO2_abs="288525.095319" HC_abs="17.767531" PMx_abs="3.201996" NOx_abs="103.806020" fuel_abs="92027.326894" electricity_abs="0"/>
    </tripinfo>
    <tripinfo id="40" depart="31.00" departLane="W_1" departPos="5.10" departSpeed="14.31" departDelay="0.00" arrival="149.00" arrivalLane="-E_0" arrivalPos="783.20" arrivalSpeed="14.07" duration="118.00" routeLength="1594.90" waitingTime="0.00" waitingCount="0" stopTime="0.00" timeLoss="6.53" rerouteNo="0" devices="tripinfo_40 emissions_40" vType="passenger" speedFactor="1.03" vaporized="">
        <emissions CO_abs="1387.219004" CO2_abs="265295.648653" HC_abs="11.491528" PMx_abs="2.869851" NOx_abs="92.087873" fuel_abs="84617.667768" electricity_abs="0"/>
    </tripinfo>
    <tripinfo id="22" depart="21.00" departLane="W_2" departPos="5.10" departSpeed="13.54" departDelay="0.00" arrival="151.00" arrivalLane="-E_0" arrivalPos="783.20" arrivalSpeed="13.13" duration="130.00" routeLength="1594.90" waitingTime="1.00" waitingCount="1" stopTime="0.00" timeLoss="12.19" rerouteNo="0" devices="tripinfo_22 emissions_22" vType="passenger" speedFactor="0.97" vaporized="">
        <emissions CO_abs="2662.070575" CO2_abs="301650.640025" HC_abs="18.136509" PMx_abs="3.608549" NOx_abs="108.525367" fuel_abs="96213.546657" electricity_abs="0"/>
    </tripinfo>
    <tripinfo id="57" depart="46.00" departLane="W_4" departPos="5.10" departSpeed="15.87" departDelay="0.00" arrival="151.00" arrivalLane="-E_1" arrivalPos="783.20" arrivalSpeed="15.81" duration="105.00" routeLength="1594.90" waitingTime="0.00" waitingCount="0" stopTime="0.00" timeLoss="3.63" rerouteNo="0" devices="tripinfo_57 emissions_57" vType="passenger" speedFactor="1.14" vaporized="">
        <emissions CO_abs="977.690390" CO2_abs="256169.296489" HC_abs="8.846213" PMx_abs="2.731153" NOx_abs="85.382843" fuel_abs="81706.601355" electricity_abs="0"/>
    </tripinfo>
    <tripinfo id="8" depart="6.00" departLane="E_3" departPos="5.10" departSpeed="13.03" departDelay="0.00" arrival="152.00" arrivalLane="-W_0" arrivalPos="783.20" arrivalSpeed="12.28" duration="146.00" routeLength="1594.90" waitingTime="11.00" waitingCount="1" stopTime="0.00" timeLoss="22.87" rerouteNo="0" devices="tripinfo_8 emissions_8" vType="passenger" speedFactor="0.94" vaporized="">
        <emissions CO_abs="4330.233412" CO2_abs="320492.693211" HC_abs="26.391446" PMx_abs="4.032565" NOx_abs="117.254458" fuel_abs="102224.095172" electricity_abs="0"/>
    </tripinfo>
    <tripinfo id="1" depart="3.00" departLane="E_1" departPos="5.10" departSpeed="13.03" departDelay="0.00" arrival="154.00" arrivalLane="-W_0" arrivalPos="783.20" arrivalSpeed="12.61" duration="151.00" routeLength="1594.90" waitingTime="17.00" waitingCount="1" stopTime="0.00" timeLoss="27.83" rerouteNo="0" devices="tripinfo_1 emissions_1" vType="passenger" speedFactor="0.94" vaporized="">
        <emissions CO_abs="5234.389801" CO2_abs="342575.258668" HC_abs="30.773126" PMx_abs="4.346554" NOx_abs="125.204644" fuel_abs="109267.883051" electricity_abs="0"/>
    </tripinfo>
    <tripinfo id="26" depart="23.00" departLane="W_4" departPos="5.10" departSpeed="12.74" departDelay="0.00" arrival="154.00" arrivalLane="-E_0" arrivalPos="783.20" arrivalSpeed="12.00" duration="131.00" routeLength="1594.90" waitingTime="0.00" waitingCount="0" stopTime="0.00" timeLoss="5.73" rerouteNo="0" devices="tripinfo_26 emissions_26" vType="passenger" speedFactor="0.92" vaporized="">
        <emissions CO_abs="1803.119582" CO2_abs="278692.702091" HC_abs="14.022565" PMx_abs="2.896891" NOx_abs="97.684946" fuel_abs="88891.088066" electricity_abs="0"/>
    </tripinfo>
    <tripinfo id="44" depart="34.00" departLane="E_3" departPos="5.10" departSpeed="14.49" departDelay="0.00" arrival="154.00" arrivalLane="-W_3" arrivalPos="783.20" arrivalSpeed="14.17" duration="120.00" routeLength="1594.90" waitingTime="0.00" waitingCount="0" stopTime="0.00" timeLoss="9.30" rerouteNo="0" devices="tripinfo_44 emissions_44" vType="passenger" speedFactor="1.04" vaporized="">
        <emissions CO_abs="2000.669028" CO2_abs="282332.109709" HC_abs="14.859966" PMx_abs="3.568197" NOx_abs="102.130035" fuel_abs="90051.257282" electricity_abs="0"/>
    </tripinfo>
    <tripinfo id="15" depart="11.00" departLane="E_2" departPos="5.10" departSpeed="12.87" departDelay="0.00" arrival="155.00" arrivalLane="-W_1" arrivalPos="783.20" arrivalSpeed="11.95" duration="144.00" routeLength="1594.90" waitingTime="8.00" waitingCount="1" stopTime="0.00" timeLoss="19.39" rerouteNo="0" devices="tripinfo_15 emissions_15" vType="passenger" speedFactor="0.93" vaporized="">
        <emissions CO_abs="3599.215283" CO2_abs="318468.893588" HC_abs="22.883314" PMx_abs="3.572233" NOx_abs="113.299139" fuel_abs="101578.659491" electricity_abs="0"/>
    </tripinfo>
    <tripinfo id="36" depart="29.00" departLane="E_3" departPos="5.10" departSpeed="13.52" departDelay="0.00" arrival="155.00" arrivalLane="-W_2" arrivalPos="783.20" arrivalSpeed="13.42" duration="126.00" routeLength="1594.90" waitingTime="0.00" waitingCount="0" stopTime="0.00" timeLoss="7.11" rerouteNo="0" devices="tripinfo_36 emissions_36" vType="passenger" speedFactor="0.97" vaporized="">
        <emissions CO_abs="1764.053836" CO2_abs="282521.402832" HC_abs="13.736001" PMx_abs="3.103770" NOx_abs="99.207794" fuel_abs="90112.063828" electricity_abs="0"/>
    </tripinfo>
    <tripinfo id="61" depart="49.00" departLane="W_3" departPos="5.10" departSpeed="15.55" departDelay="0.00" arrival="155.00" arrivalLane="-E_1" arrivalPos="783.20" arrivalSpeed="15.34" duration="106.00" routeLength="1594.90" waitingTime="0.00" waitingCount="0" stopTime="0.00" timeLoss="3.07" rerouteNo="0" devices="tripinfo_61 emissions_61" vType="passenger" speedFactor="1.12" vaporized="">
        <emissions CO_abs="844.546334" CO2_abs="254110.491235" HC_abs="8.088385" PMx_abs="2.594211" NOx_abs="84.460154" fuel_abs="81049.992934" electricity_abs="0"/>
    </tripinfo>
    <tripinfo id="29" depart="24.00" departLane="E_1" departPos="5.10" departSpeed="12.94" departDelay="0.00" arrival="156.00" arrivalLane="-W_0" arrivalPos="783.20" arrivalSpeed="12.53" duration="132.00" routeLength="1594.90" waitingTime="0.00" waitingCount="0" stopTime="0.00" timeLoss="8.31" rerouteNo="0" devices="tripinfo_29 emissions_29" vType="passenger" speedFactor="0.93" vaporized="">
        <emissions CO_abs="2023.718254" CO2_abs="284760.935561" HC_abs="14.889011" PMx_abs="3.023083" NOx_abs="99.967090" fuel_abs="90826.622642" electricity_abs="0"/>
    </tripinfo>
    <tripinfo id="42" depart="32.00" departLane="E_0" departPos="5.10" departSpeed="15.17" departDelay="0.00" arrival="156.00" arrivalLane="-W_1" arrivalPos="783.20" arrivalSpeed="14.16" duration="124.00" routeLength="1594.90" waitingTime="0.00" waitingCount="0" stopTime="0.00" timeLoss="18.69" rerouteNo="0" devices="tripinfo_42 emissions_42" vType="passenger" speedFactor="1.09" vaporized="">
        <emissions CO_abs="2312.738222" CO2_abs="288427.498260" HC_abs="16.537373" PMx_abs="3.741496" NOx_abs="105.517551" fuel_abs="91995.465910" electricity_abs="0"/>
    </tripinfo>
    <tripinfo id="53" depart="43.00" departLane="E_2" departPos="5.10" departSpeed="15.22" departDelay="0.00" arrival="156.00" arrivalLane="-W_2" arrivalPos="783.20" arrivalSpeed="15.20" duration="113.00" routeLength="1594.90" waitingTime="0.00" waitingCount="0" stopTime="0.00" timeLoss="8.11" rerouteNo="0" devices="tripinfo_53 emissions_53" vType="passenger" speedFactor="1.10" vaporized="">
        <emissions CO_abs="1461.998606" CO2_abs="266597.567505" HC_abs="11.644437" PMx_abs="3.083417" NOx_abs="92.916969" fuel_abs="85032.731320" electricity_abs="0"/>
    </tripinfo>
    <tripinfo id="25" depart="22.00" departLane="E_2" departPos="5.10" departSpeed="12.12" departDelay="0.00" arrival="160.00" arrivalLane="-W_1" arrivalPos="783.20" arrivalSpeed="11.90" duration="138.00" routeLength="1594.90" waitingTime="0.00" waitingCount="0" stopTime="0.00" timeLoss="5.96" rerouteNo="0" devices="tripinfo_25 emissions_25" vType="passenger" speedFactor="0.87" vaporized="">
        <emissions CO_abs="1888.193533" CO2_abs="271504.791551" HC_abs="14.397415" PMx_abs="2.665993" NOx_abs="94.649749" fuel_abs="86598.714145" electricity_abs="0"/>
    </tripinfo>
    <tripinfo id="41" depart="31.00" departLane="E_1" departPos="5.10" departSpeed="13.29" departDelay="0.00" arrival="160.00" arrivalLane="-W_0" arrivalPos="783.20" arrivalSpeed="12.58" duration="129.00" routeLength="1594.90" waitingTime="0.00" waitingCount="0" stopTime="0.00" timeLoss="8.76" rerouteNo="0" devices="tripinfo_41 emissions_41" vType="passenger" speedFactor="0.96" vaporized="">
        <emissions CO_abs="1881.120964" CO2_abs="282877.190984" HC_abs="14.328171" PMx_abs="3.030828" NOx_abs="99.497370" fuel_abs="90225.668594" electricity_abs="0"/>
    </tripinfo>
    <tripinfo id="52" depart="42.00" departLane="E_0" departPos="5.10" departSpeed="14.12" departDelay="0.00" arrival="160.00" arrivalLane="-W_2" arrivalPos="783.20" arrivalSpeed="14.06" duration="118.00" routeLength="1594.90" waitingTime="0.00" waitingCount="0" stopTime="0.00" timeLoss="4.73" rerouteNo="0" devices="tripinfo_52 emissions_52" vType="passenger" speedFactor="1.02" vaporized="">
        <emissions CO_abs="1212.744595" CO2_abs="261380.124613" HC_abs="10.377998" PMx_abs="2.662493" NOx_abs="89.023976" fuel_abs="83368.894908" electricity_abs="0"/>
    </tripinfo>
    <tripinfo id="32" depart="26.00" departLane="E_0" departPos="5.10" departSpeed="13.96" departDelay="0.00" arrival="162.00" arrivalLane="-W_1" arrivalPos="783.20" arrivalSpeed="13.28" duration="136.00" routeLength="1594.90" waitingTime="0.00" waitingCount="0" stopTime="0.00" timeLoss="21.01" rerouteNo="0" devices="tripinfo_32 emissions_32" vType="passenger" speedFactor="1.01" vaporized="">
        <emissions CO_abs="2702.963157" CO2_abs="306437.895160" HC_abs="18.772541" PMx_abs="3.726346" NOx_abs="111.660006" fuel_abs="97740.387417" electricity_abs="0"/>
    </tripinfo>
    <tripinfo id="58" depart="46.00" departLane="E_3" departPos="5.10" departSpeed="14.22" departDelay="0.00" arrival="163.00" arrivalLane="-W_1" arrivalPos="783.20" arrivalSpeed="13.70" duration="117.00" routeLength="1594.90" waitingTime="0.00" waitingCount="0" stopTime="0.00" timeLoss="4.73" rerouteNo="0" devices="tripinfo_58 emissions_58" vType="passenger" speedFactor="1.02" vaporized="">
        <emissions CO_abs="1123.317667" CO2_abs="259238.554223" HC_abs="9.811045" PMx_abs="2.544351" NOx_abs="87.505962" fuel_abs="82685.869880" electricity_abs="0"/>
    </tripinfo>
    <tripinfo id="5" depart="5.00" departLane="E_2" departPos="5.10" departSpeed="11.54" departDelay="0.00" arrival="164.00" arrivalLane="-W_0" arrivalPos="783.20" arrivalSpeed="11.44" duration="159.00" routeLength="1594.90" waitingTime="7.00" waitingCount="1" stopTime="0.00" timeLoss="20.06" rerouteNo="0" devices="tripinfo_5 emissions_5" vType="passenger" speedFactor="0.83" vaporized="">
        <emissions CO_abs="4558.895668" CO2_abs="335391.892912" HC_abs="28.189729" PMx_abs="3.876953" NOx_abs="122.020974" fuel_abs="106976.723402" electricity_abs="0"/>
    </tripinfo>
    <tripinfo id="23" depart="21.00" departLane="E_3" departPos="5.10" departSpeed="12.36" departDelay="0.00" arrival="165.00" arrivalLane="-W_1" arrivalPos="783.20" arrivalSpeed="11.81" duration="144.00" routeLength="1594.90" waitingTime="0.00" waitingCount="0" stopTime="0.00" timeLoss="14.76" rerouteNo="0" devices="tripinfo_23 emissions_23" vType="passenger" speedFactor="0.89" vaporized="">
        <emissions CO_abs="3082.187190" CO2_abs="309124.858950" HC_abs="20.842592" PMx_abs="3.809923" NOx_abs="113.979644" fuel_abs="98597.562058" electricity_abs="0"/>
    </tripinfo>
    <tripinfo id="54" depart="44.00" departLane="W_0" departPos="5.10" departSpeed="13.93" departDelay="0.00" arrival="167.00" arrivalLane="-N_0" arrivalPos="780.00" arrivalSpeed="13.02" duration="123.00" routeLength="1567.13" waitingTime="0.00" waitingCount="0" stopTime="0.00" timeLoss="9.45" rerouteNo="0" devices="tripinfo_54 emissions_54" vType="passenger" speedFactor="1.00" vaporized="">
        <emissions CO_abs="1770.528178" CO2_abs="267739.162342" HC_abs="13.576753" PMx_abs="3.059006" NOx_abs="94.675516" fuel_abs="85397.106474" electricity_abs="0"/>
    </tripinfo>
    <tripinfo id="24" depart="22.00" departLane="W_3" departPos="5.10" departSpeed="11.47" departDelay="0.00" arrival="168.00" arrivalLane="-E_0" arrivalPos="783.20" arrivalSpeed="11.08" duration="146.00" routeLength="1594.90" waitingTime="0.00" waitingCount="0" stopTime="0.00" timeLoss="6.42" rerouteNo="0" devices="tripinfo_24 emissions_24" vType="passenger" speedFactor="0.83" vaporized="">
        <emissions CO_abs="2403.889437" CO2_abs="285097.187225" HC_abs="17.267263" PMx_abs="2.827339" NOx_abs="100.656391" fuel_abs="90934.288113" electricity_abs="0"/>
    </tripinfo>
    <tripinfo id="62" depart="50.00" departLane="W_1" departPos="5.10" departSpeed="14.11" departDelay="0.00" arrival="168.00" arrivalLane="-E_1" arrivalPos="783.20" arrivalSpeed="13.35" duration="118.00" routeLength="1594.90" waitingTime="0.00" waitingCount="0" stopTime="0.00" timeLoss="4.58" rerouteNo="0" devices="tripinfo_62 emissions_62" vType="passenger" speedFactor="1.02" vaporized="">
        <emissions CO_abs="1330.949750" CO2_abs="266722.931330" HC_abs="11.047408" PMx_abs="2.827387" NOx_abs="91.902709" fuel_abs="85072.937929" electricity_abs="0"/>
    </tripinfo>
    <tripinfo id="84" depart="65.00" departLane="E_1" departPos="5.10" departSpeed="15.94" departDelay="0.00" arrival="169.00" arrivalLane="-W_2" arrivalPos="783.20" arrivalSpeed="15.83" duration="104.00" routeLength="1594.90" waitingTime="0.00" waitingCount="0" stopTime="0.00" timeLoss="3.62" rerouteNo="0" devices="tripinfo_84 emissions_84" vType="passenger" speedFactor="1.15" vaporized="">
        <emissions CO_abs="1014.743992" CO2_abs="253494.361601" HC_abs="8.861233" PMx_abs="2.719708" NOx_abs="84.927788" fuel_abs="80853.383909" electricity_abs="0"/>
    </tripinfo>
    <tripinfo id="63" depart="50.00" departLane="E_0" departPos="5.10" departSpeed="13.71" departDelay="0.00" arrival="171.00" arrivalLane="-W_0" arrivalPos="783.20" arrivalSpeed="12.94" duration="121.00" routeLength="1594.90" waitingTime="0.00" waitingCount="0" stopTime="0.00" timeLoss="4.38" rerouteNo="0" devices="tripinfo_63 emissions_63" vType="passenger" speedFactor="0.99" vaporized="">
        <emissions CO_abs="1065.678947" CO2_abs="273019.817321" HC_abs="9.704700" PMx_abs="2.400540" NOx_abs="90.387585" fuel_abs="87081.762145" electricity_abs="0"/>
    </tripinfo>