<?xml version="1.0" encoding="UTF-8"?>

<!-- generated on 2023-07-19 16:42:02 by Eclipse SUMO sumo Version 1.17.0
<configuration xmlns:xsi="http://www.w3.org/2001/XMLSchema-instance" xsi:noNamespaceSchemaLocation="http://sumo.dlr.de/xsd/sumoConfiguration.xsd">

    <input>
        <net-file value="Data0-0\intersection.net.xml"/>
        <route-files value="Data0-0\intersection.rou.xml"/>
        <additional-files value="Data0-0\intersection.det.xml"/>
    </input>

    <output>
        <tripinfo-output value="Data0-0\tripinfo.xml"/>
    </output>

    <time>
        <begin value="0"/>
    </time>

    <processing>
        <time-to-teleport value="-1"/>
        <waiting-time-memory value="60000"/>
    </processing>

    <report>
        <verbose value="true"/>
        <no-step-log value="true"/>
    </report>

    <traci_server>
        <remote-port value="62931"/>
    </traci_server>

    <gui_only>
        <gui-settings-file value="Data0-0\intersection.settings.xml"/>
    </gui_only>

</configuration>
-->

<tripinfos xmlns:xsi="http://www.w3.org/2001/XMLSchema-instance" xsi:noNamespaceSchemaLocation="http://sumo.dlr.de/xsd/tripinfo_file.xsd">
    <tripinfo id="6" depart="3.00" departLane="S_0" departPos="5.10" departSpeed="14.53" departDelay="0.00" arrival="117.00" arrivalLane="-N_0" arrivalPos="780.00" arrivalSpeed="13.74" duration="114.00" routeLength="1595.43" waitingTime="0.00" waitingCount="0" stopTime="0.00" timeLoss="3.64" rerouteNo="0" devices="tripinfo_6" vType="passenger" speedFactor="1.05" vaporized=""/>
    <tripinfo id="11" depart="5.00" departLane="S_1" departPos="5.10" departSpeed="14.26" departDelay="0.00" arrival="121.00" arrivalLane="-N_0" arrivalPos="780.00" arrivalSpeed="14.00" duration="116.00" routeLength="1595.43" waitingTime="0.00" waitingCount="0" stopTime="0.00" timeLoss="3.72" rerouteNo="0" devices="tripinfo_11" vType="passenger" speedFactor="1.03" vaporized=""/>
    <tripinfo id="10" depart="5.00" departLane="N_3" departPos="5.10" departSpeed="15.15" departDelay="0.00" arrival="123.00" arrivalLane="-W_0" arrivalPos="783.20" arrivalSpeed="14.54" duration="118.00" routeLength="1588.47" waitingTime="2.00" waitingCount="1" stopTime="0.00" timeLoss="12.00" rerouteNo="0" devices="tripinfo_10" vType="passenger" speedFactor="1.09" vaporized=""/>
    <tripinfo id="2" depart="2.00" departLane="N_2" departPos="5.10" departSpeed="14.03" departDelay="0.00" arrival="127.00" arrivalLane="-W_0" arrivalPos="783.20" arrivalSpeed="13.64" duration="125.00" routeLength="1592.81" waitingTime="0.00" waitingCount="0" stopTime="0.00" timeLoss="10.41" rerouteNo="0" devices="tripinfo_2" vType="passenger" speedFactor="1.01" vaporized=""/>
    <tripinfo id="12" depart="6.00" departLane="N_2" departPos="5.10" departSpeed="13.20" departDelay="0.00" arrival="127.00" arrivalLane="-W_1" arrivalPos="783.20" arrivalSpeed="13.83" duration="121.00" routeLength="1592.81" waitingTime="0.00" waitingCount="0" stopTime="0.00" timeLoss="10.42" rerouteNo="0" devices="tripinfo_12" vType="passenger" speedFactor="1.05" vaporized=""/>
    <tripinfo id="4" depart="3.00" departLane="N_3" departPos="5.10" departSpeed="14.31" departDelay="0.00" arrival="128.00" arrivalLane="-W_2" arrivalPos="783.20" arrivalSpeed="13.42" duration="125.00" routeLength="1588.47" waitingTime="0.00" waitingCount="0" stopTime="0.00" timeLoss="12.77" rerouteNo="0" devices="tripinfo_4" vType="passenger" speedFactor="1.03" vaporized=""/>
    <tripinfo id="14" depart="8.00" departLane="W_0" departPos="5.10" departSpeed="13.77" departDelay="0.00" arrival="129.00" arrivalLane="-N_0" arrivalPos="780.00" arrivalSpeed="12.90" duration="121.00" routeLength="1567.13" waitingTime="0.00" waitingCount="0" stopTime="0.00" timeLoss="6.06" rerouteNo="0" devices="tripinfo_14" vType="passenger" speedFactor="0.99" vaporized=""/>
    <tripinfo id="33" depart="25.00" departLane="N_3" departPos="5.10" departSpeed="16.28" departDelay="0.00" arrival="130.00" arrivalLane="-W_0" arrivalPos="783.20" arrivalSpeed="15.95" duration="105.00" routeLength="1592.81" waitingTime="0.00" waitingCount="0" stopTime="0.00" timeLoss="5.91" rerouteNo="0" devices="tripinfo_33" vType="passenger" speedFactor="1.17" vaporized=""/>
    <tripinfo id="22" depart="14.00" departLane="N_0" departPos="5.10" departSpeed="13.54" departDelay="0.00" arrival="137.00" arrivalLane="-E_0" arrivalPos="783.20" arrivalSpeed="12.71" duration="123.00" routeLength="1569.83" waitingTime="0.00" waitingCount="0" stopTime="0.00" timeLoss="5.61" rerouteNo="0" devices="tripinfo_22" vType="passenger" speedFactor="0.97" vaporized=""/>
    <tripinfo id="15" depart="8.00" departLane="N_3" departPos="5.10" departSpeed="12.87" departDelay="0.00" arrival="140.00" arrivalLane="-W_1" arrivalPos="783.20" arrivalSpeed="12.08" duration="132.00" routeLength="1588.47" waitingTime="0.00" waitingCount="0" stopTime="0.00" timeLoss="7.86" rerouteNo="0" devices="tripinfo_15" vType="passenger" speedFactor="0.93" vaporized=""/>
    <tripinfo id="30" depart="22.00" departLane="S_1" departPos="5.10" departSpeed="16.37" departDelay="0.00" arrival="140.00" arrivalLane="-N_0" arrivalPos="780.00" arrivalSpeed="15.45" duration="118.00" routeLength="1595.43" waitingTime="4.00" waitingCount="1" stopTime="0.00" timeLoss="19.64" rerouteNo="0" devices="tripinfo_30" vType="passenger" speedFactor="1.18" vaporized=""/>
    <tripinfo id="7" depart="4.00" departLane="N_2" departPos="5.10" departSpeed="12.31" departDelay="0.00" arrival="141.00" arrivalLane="-W_0" arrivalPos="783.20" arrivalSpeed="11.56" duration="137.00" routeLength="1592.81" waitingTime="0.00" waitingCount="0" stopTime="0.00" timeLoss="6.68" rerouteNo="0" devices="tripinfo_7" vType="passenger" speedFactor="0.89" vaporized=""/>
    <tripinfo id="27" depart="19.00" departLane="N_1" departPos="5.10" departSpeed="13.18" departDelay="0.00" arrival="144.00" arrivalLane="-E_0" arrivalPos="783.20" arrivalSpeed="13.02" duration="125.00" routeLength="1569.83" waitingTime="0.00" waitingCount="0" stopTime="0.00" timeLoss="5.26" rerouteNo="0" devices="tripinfo_27" vType="passenger" speedFactor="0.95" vaporized=""/>
    <tripinfo id="9" depart="4.00" departLane="S_0" departPos="5.10" departSpeed="11.71" departDelay="0.00" arrival="145.00" arrivalLane="-W_0" arrivalPos="783.20" arrivalSpeed="11.79" duration="141.00" routeLength="1570.33" waitingTime="0.00" waitingCount="0" stopTime="0.00" timeLoss="7.39" rerouteNo="0" devices="tripinfo_9" vType="passenger" speedFactor="0.86" vaporized=""/>
    <tripinfo id="40" depart="31.00" departLane="N_1" departPos="5.10" departSpeed="14.31" departDelay="0.00" arrival="147.00" arrivalLane="-E_0" arrivalPos="783.20" arrivalSpeed="14.18" duration="116.00" routeLength="1569.83" waitingTime="0.00" waitingCount="0" stopTime="0.00" timeLoss="5.52" rerouteNo="0" devices="tripinfo_40" vType="passenger" speedFactor="1.03" vaporized=""/>
    <tripinfo id="44" depart="37.00" departLane="S_2" departPos="5.10" departSpeed="14.49" departDelay="0.00" arrival="156.00" arrivalLane="-E_0" arrivalPos="783.20" arrivalSpeed="13.59" duration="119.00" routeLength="1589.40" waitingTime="0.00" waitingCount="0" stopTime="0.00" timeLoss="8.23" rerouteNo="0" devices="tripinfo_44" vType="passenger" speedFactor="1.04" vaporized=""/>
    <tripinfo id="34" depart="25.00" departLane="S_2" departPos="5.10" departSpeed="13.82" departDelay="0.00" arrival="161.00" arrivalLane="-E_0" arrivalPos="783.20" arrivalSpeed="13.39" duration="136.00" routeLength="1593.79" waitingTime="9.00" waitingCount="1" stopTime="0.00" timeLoss="19.52" rerouteNo="0" devices="tripinfo_34" vType="passenger" speedFactor="0.99" vaporized=""/>
    <tripinfo id="60" depart="51.00" departLane="N_1" departPos="5.10" departSpeed="15.04" departDelay="0.00" arrival="162.00" arrivalLane="-E_1" arrivalPos="783.20" arrivalSpeed="14.91" duration="111.00" routeLength="1569.83" waitingTime="0.00" waitingCount="0" stopTime="0.00" timeLoss="6.06" rerouteNo="0" devices="tripinfo_60" vType="passenger" speedFactor="1.08" vaporized=""/>
    <tripinfo id="1" depart="1.00" departLane="S_1" departPos="5.10" departSpeed="13.03" departDelay="0.00" arrival="164.00" arrivalLane="-E_0" arrivalPos="783.20" arrivalSpeed="12.42" duration="163.00" routeLength="1598.14" waitingTime="27.00" waitingCount="2" stopTime="0.00" timeLoss="40.15" rerouteNo="0" devices="tripinfo_1" vType="passenger" speedFactor="0.94" vaporized=""/>
    <tripinfo id="26" depart="18.00" departLane="S_1" departPos="5.10" departSpeed="12.74" departDelay="0.00" arrival="166.00" arrivalLane="-N_0" arrivalPos="780.00" arrivalSpeed="11.81" duration="148.00" routeLength="1595.43" waitingTime="10.00" waitingCount="2" stopTime="0.00" timeLoss="22.30" rerouteNo="0" devices="tripinfo_26" vType="passenger" speedFactor="0.92" vaporized=""/>
    <tripinfo id="62" depart="52.00" departLane="N_0" departPos="5.10" departSpeed="14.11" departDelay="0.00" arrival="169.00" arrivalLane="-E_0" arrivalPos="783.20" arrivalSpeed="13.69" duration="117.00" routeLength="1569.83" waitingTime="0.00" waitingCount="0" stopTime="0.00" timeLoss="5.19" rerouteNo="0" devices="tripinfo_62" vType="passenger" speedFactor="1.02" vaporized=""/>
    <tripinfo id="52" depart="43.00" departLane="S_0" departPos="5.10" departSpeed="14.12" departDelay="0.00" arrival="170.00" arrivalLane="-W_0" arrivalPos="783.20" arrivalSpeed="14.05" duration="127.00" routeLength="1570.33" waitingTime="1.00" waitingCount="1" stopTime="0.00" timeLoss="14.12" rerouteNo="0" devices="tripinfo_52" vType="passenger" speedFactor="1.02" vaporized=""/>
    <tripinfo id="29" depart="21.00" departLane="S_0" departPos="5.10" departSpeed="12.94" departDelay="0.00" arrival="172.00" arrivalLane="-W_0" arrivalPos="783.20" arrivalSpeed="12.71" duration="151.00" routeLength="1570.33" waitingTime="8.00" waitingCount="2" stopTime="0.00" timeLoss="28.83" rerouteNo="0" devices="tripinfo_29" vType="passenger" speedFactor="0.93" vaporized=""/>
    <tripinfo id="32" depart="24.00" departLane="S_0" departPos="5.10" departSpeed="13.96" departDelay="0.00" arrival="173.00" arrivalLane="-N_0" arrivalPos="780.00" arrivalSpeed="13.89" duration="149.00" routeLength="1595.43" waitingTime="17.00" waitingCount="2" stopTime="0.00" timeLoss="34.32" rerouteNo="0" devices="tripinfo_32" vType="passenger" speedFactor="1.01" vaporized=""/>
    <tripinfo id="61" depart="51.00" departLane="S_0" departPos="5.10" departSpeed="15.55" departDelay="0.00" arrival="188.00" arrivalLane="-W_0" arrivalPos="783.20" arrivalSpeed="14.74" duration="137.00" routeLength="1570.33" waitingTime="7.00" waitingCount="2" stopTime="0.00" timeLoss="35.11" rerouteNo="0" devices="tripinfo_61" vType="passenger" speedFactor="1.12" vaporized=""/>
    <tripinfo id="66" depart="56.00" departLane="S_3" departPos="5.10" departSpeed="12.60" departDelay="0.00" arrival="190.00" arrivalLane="-E_0" arrivalPos="783.20" arrivalSpeed="12.29" duration="134.00" routeLength="1589.40" waitingTime="0.00" waitingCount="0" stopTime="0.00" timeLoss="6.86" rerouteNo="0" devices="tripinfo_66" vType="passenger" speedFactor="0.91" vaporized=""/>
    <tripinfo id="39" depart="29.00" departLane="S_1" departPos="5.10" departSpeed="12.51" departDelay="0.00" arrival="191.00" arrivalLane="-N_1" arrivalPos="780.00" arrivalSpeed="11.82" duration="162.00" routeLength="1595.43" waitingTime="15.00" waitingCount="3" stopTime="0.00" timeLoss="33.98" rerouteNo="0" devices="tripinfo_39" vType="passenger" speedFactor="0.90" vaporized=""/>
    <tripinfo id="47" depart="38.00" departLane="S_1" departPos="5.10" departSpeed="12.51" departDelay="0.00" arrival="191.00" arrivalLane="-N_0" arrivalPos="780.00" arrivalSpeed="11.79" duration="153.00" routeLength="1595.43" waitingTime="9.00" waitingCount="2" stopTime="0.00" timeLoss="24.97" rerouteNo="0" devices="tripinfo_47" vType="passenger" speedFactor="0.90" vaporized=""/>
    <tripinfo id="81" depart="68.00" departLane="N_3" departPos="5.10" departSpeed="13.86" departDelay="0.00" arrival="193.00" arrivalLane="-W_1" arrivalPos="783.20" arrivalSpeed="13.48" duration="125.00" routeLength="1592.81" waitingTime="0.00" waitingCount="0" stopTime="0.00" timeLoss="8.95" rerouteNo="0" devices="tripinfo_81" vType="passenger" speedFactor="1.00" vaporized=""/>
    <tripinfo id="99" depart="83.00" departLane="N_0" departPos="5.10" departSpeed="15.24" departDelay="0.00" arrival="193.00" arrivalLane="-E_1" arrivalPos="783.20" arrivalSpeed="14.90" duration="110.00" routeLength="1569.83" waitingTime="0.00" waitingCount="0" stopTime="0.00" timeLoss="5.60" rerouteNo="0" devices="tripinfo_99" vType="passenger" speedFactor="1.10" vaporized=""/>
    <tripinfo id="74" depart="61.00" departLane="N_3" departPos="5.10" departSpeed="13.27" departDelay="0.00" arrival="194.00" arrivalLane="-W_0" arrivalPos="783.20" arrivalSpeed="12.69" duration="133.00" routeLength="1592.81" waitingTime="0.00" waitingCount="0" stopTime="0.00" timeLoss="11.69" rerouteNo="0" devices="tripinfo_74" vType="passenger" speedFactor="0.96" vaporized=""/>
    <tripinfo id="50" depart="41.00" departLane="S_3" departPos="5.10" departSpeed="11.87" departDelay="0.00" arrival="195.00" arrivalLane="-E_0" arrivalPos="783.20" arrivalSpeed="11.67" duration="154.00" routeLength="1593.79" waitingTime="9.00" waitingCount="1" stopTime="0.00" timeLoss="18.45" rerouteNo="0" devices="tripinfo_50" vType="passenger" speedFactor="0.85" vaporized=""/>
    <tripinfo id="56" depart="46.00" departLane="S_0" departPos="5.10" departSpeed="12.49" departDelay="0.00" arrival="198.00" arrivalLane="-W_0" arrivalPos="783.20" arrivalSpeed="11.73" duration="152.00" routeLength="1570.33" waitingTime="7.00" waitingCount="2" stopTime="0.00" timeLoss="25.14" rerouteNo="0" devices="tripinfo_56" vType="passenger" speedFactor="0.90" vaporized=""/>
    <tripinfo id="86" depart="72.00" departLane="N_2" departPos="5.10" departSpeed="13.91" departDelay="0.00" arrival="202.00" arrivalLane="-W_0" arrivalPos="783.20" arrivalSpeed="13.07" duration="130.00" routeLength="1588.47" waitingTime="4.00" waitingCount="1" stopTime="0.00" timeLoss="14.85" rerouteNo="0" devices="tripinfo_86" vType="passenger" speedFactor="1.00" vaporized=""/>
    <tripinfo id="79" depart="65.00" departLane="S_0" departPos="5.10" departSpeed="15.10" departDelay="0.00" arrival="206.00" arrivalLane="-W_1" arrivalPos="783.20" arrivalSpeed="14.78" duration="141.00" routeLength="1570.33" waitingTime="4.00" waitingCount="2" stopTime="0.00" timeLoss="35.65" rerouteNo="0" devices="tripinfo_79" vType="passenger" speedFactor="1.09" vaporized=""/>
    <tripinfo id="49" depart="40.00" departLane="S_0" departPos="5.10" departSpeed="11.81" departDelay="0.00" arrival="207.00" arrivalLane="-N_0" arrivalPos="780.00" arrivalSpeed="11.79" duration="167.00" routeLength="1595.43" waitingTime="11.00" waitingCount="2" stopTime="0.00" timeLoss="31.84" rerouteNo="0" devices="tripinfo_49" vType="passenger" speedFactor="0.85" vaporized=""/>
    <tripinfo id="64" depart="55.00" departLane="S_0" departPos="5.10" departSpeed="13.02" departDelay="0.00" arrival="207.00" arrivalLane="-W_0" arrivalPos="783.20" arrivalSpeed="12.70" duration="152.00" routeLength="1570.33" waitingTime="6.00" waitingCount="3" stopTime="0.00" timeLoss="30.35" rerouteNo="0" devices="tripinfo_64" vType="passenger" speedFactor="0.94" vaporized=""/>
    <tripinfo id="19" depart="11.00" departLane="E_1" departPos="5.10" departSpeed="16.09" departDelay="0.00" arrival="210.00" arrivalLane="-W_1" arrivalPos="783.20" arrivalSpeed="15.91" duration="199.00" routeLength="1594.90" waitingTime="87.00" waitingCount="1" stopTime="0.00" timeLoss="99.29" rerouteNo="0" devices="tripinfo_19" vType="passenger" speedFactor="1.16" vaporized=""/>
    <tripinfo id="31" depart="23.00" departLane="E_3" departPos="5.10" departSpeed="16.03" departDelay="0.00" arrival="210.00" arrivalLane="-W_3" arrivalPos="783.20" arrivalSpeed="15.52" duration="187.00" routeLength="1594.90" waitingTime="77.00" waitingCount="1" stopTime="0.00" timeLoss="87.34" rerouteNo="0" devices="tripinfo_31" vType="passenger" speedFactor="1.15" vaporized=""/>
    <tripinfo id="13" depart="7.00" departLane="E_2" departPos="5.10" departSpeed="15.60" departDelay="0.00" arrival="211.00" arrivalLane="-W_0" arrivalPos="783.20" arrivalSpeed="14.68" duration="204.00" routeLength="1594.90" waitingTime="90.00" waitingCount="1" stopTime="0.00" timeLoss="101.26" rerouteNo="0" devices="tripinfo_13" vType="passenger" speedFactor="1.12" vaporized=""/>
    <tripinfo id="28" depart="20.00" departLane="E_2" departPos="5.10" departSpeed="15.72" departDelay="0.00" arrival="211.00" arrivalLane="-W_1" arrivalPos="783.20" arrivalSpeed="15.03" duration="191.00" routeLength="1594.90" waitingTime="77.00" waitingCount="1" stopTime="0.00" timeLoss="88.69" rerouteNo="0" devices="tripinfo_28" vType="passenger" speedFactor="1.13" vaporized=""/>
    <tripinfo id="103" depart="85.00" departLane="W_0" departPos="5.10" departSpeed="13.23" departDelay="0.00" arrival="211.00" arrivalLane="-N_0" arrivalPos="780.00" arrivalSpeed="13.00" duration="126.00" routeLength="1567.13" waitingTime="0.00" waitingCount="0" stopTime="0.00" timeLoss="6.26" rerouteNo="0" devices="tripinfo_103" vType="passenger" speedFactor="0.95" vaporized=""/>
    <tripinfo id="3" depart="3.00" departLane="W_2" departPos="5.10" departSpeed="15.04" departDelay="0.00" arrival="213.00" arrivalLane="-E_1" arrivalPos="783.20" arrivalSpeed="14.88" duration="210.00" routeLength="1594.90" waitingTime="92.00" waitingCount="1" stopTime="0.00" timeLoss="103.49" rerouteNo="0" devices="tripinfo_3" vType="passenger" speedFactor="1.08" vaporized=""/>
    <tripinfo id="0" depart="0.00" departLane="W_1" departPos="5.10" departSpeed="14.72" departDelay="0.00" arrival="214.00" arrivalLane="-E_0" arrivalPos="783.20" arrivalSpeed="14.20" duration="214.00" routeLength="1594.90" waitingTime="94.00" waitingCount="1" stopTime="0.00" timeLoss="105.09" rerouteNo="0" devices="tripinfo_0" vType="passenger" speedFactor="1.06" vaporized=""/>
    <tripinfo id="18" depart="11.00" departLane="W_1" departPos="5.10" departSpeed="13.00" departDelay="0.00" arrival="222.00" arrivalLane="-E_0" arrivalPos="783.20" arrivalSpeed="12.48" duration="211.00" routeLength="1594.90" waitingTime="76.00" waitingCount="1" stopTime="0.00" timeLoss="87.47" rerouteNo="0" devices="tripinfo_18" vType="passenger" speedFactor="0.94" vaporized=""/>
    <tripinfo id="108" depart="89.00" departLane="S_0" departPos="5.10" departSpeed="14.79" departDelay="0.00" arrival="226.00" arrivalLane="-N_0" arrivalPos="780.00" arrivalSpeed="14.79" duration="137.00" routeLength="1595.43" waitingTime="7.00" waitingCount="1" stopTime="0.00" timeLoss="28.83" rerouteNo="0" devices="tripinfo_108" vType="passenger" speedFactor="1.06" vaporized=""/>
    <tripinfo id="125" depart="104.00" departLane="S_0" departPos="5.10" departSpeed="16.01" departDelay="0.00" arrival="227.00" arrivalLane="-W_0" arrivalPos="783.20" arrivalSpeed="15.44" duration="123.00" routeLength="1570.33" waitingTime="5.00" waitingCount="2" stopTime="0.00" timeLoss="23.96" rerouteNo="0" devices="tripinfo_125" vType="passenger" speedFactor="1.15" vaporized=""/>
    <tripinfo id="70" depart="58.00" departLane="S_1" departPos="5.10" departSpeed="14.21" departDelay="0.00" arrival="228.00" arrivalLane="-N_0" arrivalPos="780.00" arrivalSpeed="13.29" duration="170.00" routeLength="1595.43" waitingTime="38.00" waitingCount="3" stopTime="0.00" timeLoss="57.65" rerouteNo="0" devices="tripinfo_70" vType="passenger" speedFactor="1.02" vaporized=""/>
    <tripinfo id="78" depart="64.00" departLane="S_1" departPos="5.10" departSpeed="13.99" departDelay="0.00" arrival="228.00" arrivalLane="-E_0" arrivalPos="783.20" arrivalSpeed="13.13" duration="164.00" routeLength="1589.40" waitingTime="36.00" waitingCount="2" stopTime="0.00" timeLoss="49.92" rerouteNo="0" devices="tripinfo_78" vType="passenger" speedFactor="1.01" vaporized=""/>
    <tripinfo id="24" depart="17.00" departLane="W_2" departPos="5.10" departSpeed="11.47" departDelay="0.00" arrival="230.00" arrivalLane="-E_0" arrivalPos="783.20" arrivalSpeed="11.18" duration="213.00" routeLength="1594.90" waitingTime="61.00" waitingCount="1" stopTime="0.00" timeLoss="73.40" rerouteNo="0" devices="tripinfo_24" vType="passenger" speedFactor="0.83" vaporized=""/>
    <tripinfo id="77" depart="63.00" departLane="S_3" departPos="5.10" departSpeed="13.64" departDelay="0.00" arrival="231.00" arrivalLane="-E_1" arrivalPos="783.20" arrivalSpeed="13.48" duration="168.00" routeLength="1593.79" waitingTime="38.00" waitingCount="2" stopTime="0.00" timeLoss="50.05" rerouteNo="0" devices="tripinfo_77" vType="passenger" speedFactor="0.98" vaporized=""/>
    <tripinfo id="135" depart="114.00" departLane="W_0" departPos="5.10" departSpeed="14.05" departDelay="0.00" arrival="233.00" arrivalLane="-N_0" arrivalPos="780.00" arrivalSpeed="13.83" duration="119.00" routeLength="1567.13" waitingTime="0.00" waitingCount="0" stopTime="0.00" timeLoss="6.65" rerouteNo="0" devices="tripinfo_135" vType="passenger" speedFactor="1.01" vaporized=""/>
    <tripinfo id="92" depart="79.00" departLane="S_0" departPos="5.10" departSpeed="11.58" departDelay="0.00" arrival="234.00" arrivalLane="-W_0" arrivalPos="783.20" arrivalSpeed="11.49" duration="155.00" routeLength="1570.33" waitingTime="8.00" waitingCount="1" stopTime="0.00" timeLoss="17.93" rerouteNo="0" devices="tripinfo_92" vType="passenger" speedFactor="0.83" vaporized=""/>
    <tripinfo id="107" depart="89.00" departLane="N_2" departPos="5.10" departSpeed="14.37" departDelay="0.00" arrival="235.00" arrivalLane="-W_1" arrivalPos="783.20" arrivalSpeed="13.51" duration="146.00" routeLength="1588.47" waitingTime="22.00" waitingCount="2" stopTime="0.00" timeLoss="34.50" rerouteNo="0" devices="tripinfo_107" vType="passenger" speedFactor="1.03" vaporized=""/>
    <tripinfo id="114" depart="96.00" departLane="N_2" departPos="5.10" departSpeed="15.23" departDelay="0.00" arrival="235.00" arrivalLane="-W_2" arrivalPos="783.20" arrivalSpeed="15.00" duration="139.00" routeLength="1588.47" waitingTime="17.00" waitingCount="2" stopTime="0.00" timeLoss="33.60" rerouteNo="0" devices="tripinfo_114" vType="passenger" speedFactor="1.10" vaporized=""/>
    <tripinfo id="113" depart="95.00" departLane="N_3" departPos="5.10" departSpeed="14.02" departDelay="0.00" arrival="237.00" arrivalLane="-W_1" arrivalPos="783.20" arrivalSpeed="13.21" duration="142.00" routeLength="1592.81" waitingTime="12.00" waitingCount="1" stopTime="0.00" timeLoss="27.86" rerouteNo="0" devices="tripinfo_113" vType="passenger" speedFactor="1.01" vaporized=""/>
    <tripinfo id="91" depart="79.00" departLane="N_3" departPos="5.10" departSpeed="12.39" departDelay="0.00" arrival="240.00" arrivalLane="-W_0" arrivalPos="783.20" arrivalSpeed="12.02" duration="161.00" routeLength="1592.81" waitingTime="18.00" waitingCount="2" stopTime="0.00" timeLoss="31.63" rerouteNo="0" devices="tripinfo_91" vType="passenger" speedFactor="0.89" vaporized=""/>
    <tripinfo id="37" depart="28.00" departLane="W_3" departPos="5.10" departSpeed="16.39" departDelay="0.00" arrival="242.00" arrivalLane="-E_0" arrivalPos="783.20" arrivalSpeed="16.31" duration="214.00" routeLength="1594.90" waitingTime="101.00" waitingCount="2" stopTime="0.00" timeLoss="116.19" rerouteNo="0" devices="tripinfo_37" vType="passenger" speedFactor="1.18" vaporized=""/>
    <tripinfo id="51" depart="42.00" departLane="W_3" departPos="5.10" departSpeed="16.24" departDelay="0.00" arrival="242.00" arrivalLane="-E_1" arrivalPos="783.20" arrivalSpeed="16.23" duration="200.00" routeLength="1594.90" waitingTime="88.00" waitingCount="2" stopTime="0.00" timeLoss="100.93" rerouteNo="0" devices="tripinfo_51" vType="passenger" speedFactor="1.17" vaporized=""/>
    <tripinfo id="104" depart="85.00" departLane="N_3" departPos="5.10" departSpeed="12.42" departDelay="0.00" arrival="242.00" arrivalLane="-W_1" arrivalPos="783.20" arrivalSpeed="12.37" duration="157.00" routeLength="1592.81" waitingTime="15.00" waitingCount="2" stopTime="0.00" timeLoss="27.95" rerouteNo="0" devices="tripinfo_104" vType="passenger" speedFactor="0.89" vaporized=""/>
    <tripinfo id="128" depart="106.00" departLane="S_0" departPos="5.10" departSpeed="15.53" departDelay="0.00" arrival="242.00" arrivalLane="-W_0" arrivalPos="783.20" arrivalSpeed="14.67" duration="136.00" routeLength="1570.33" waitingTime="4.00" waitingCount="2" stopTime="0.00" timeLoss="33.45" rerouteNo="0" devices="tripinfo_128" vType="passenger" speedFactor="1.12" vaporized=""/>
    <tripinfo id="38" depart="28.00" departLane="E_0" departPos="5.10" departSpeed="15.31" departDelay="0.00" arrival="245.00" arrivalLane="-W_1" arrivalPos="783.20" arrivalSpeed="15.21" duration="217.00" routeLength="1594.90" waitingTime="94.00" waitingCount="2" stopTime="0.00" timeLoss="112.09" rerouteNo="0" devices="tripinfo_38" vType="passenger" speedFactor="1.10" vaporized=""/>
    <tripinfo id="43" depart="37.00" departLane="W_2" departPos="5.10" departSpeed="14.42" departDelay="0.00" arrival="248.00" arrivalLane="-E_0" arrivalPos="783.20" arrivalSpeed="14.30" duration="211.00" routeLength="1594.90" waitingTime="84.00" waitingCount="2" stopTime="0.00" timeLoss="99.82" rerouteNo="0" devices="tripinfo_43" vType="passenger" speedFactor="1.04" vaporized=""/>
    <tripinfo id="20" depart="12.00" departLane="W_3" departPos="5.10" departSpeed="14.14" departDelay="0.00" arrival="250.00" arrivalLane="-E_0" arrivalPos="783.20" arrivalSpeed="13.72" duration="238.00" routeLength="1594.90" waitingTime="109.00" waitingCount="2" stopTime="0.00" timeLoss="125.14" rerouteNo="0" devices="tripinfo_20" vType="passenger" speedFactor="1.02" vaporized=""/>
    <tripinfo id="21" depart="13.00" departLane="E_2" departPos="5.10" departSpeed="14.03" departDelay="0.00" arrival="250.00" arrivalLane="-W_0" arrivalPos="783.20" arrivalSpeed="13.68" duration="237.00" routeLength="1594.90" waitingTime="104.00" waitingCount="2" stopTime="0.00" timeLoss="123.08" rerouteNo="0" devices="tripinfo_21" vType="passenger" speedFactor="1.01" vaporized=""/>
    <tripinfo id="150" depart="127.00" departLane="W_0" departPos="5.10" departSpeed="13.38" departDelay="0.00" arrival="252.00" arrivalLane="-N_0" arrivalPos="780.00" arrivalSpeed="13.28" duration="125.00" routeLength="1567.13" waitingTime="0.00" waitingCount="0" stopTime="0.00" timeLoss="6.97" rerouteNo="0" devices="tripinfo_150" vType="passenger" speedFactor="0.96" vaporized=""/>
    <tripinfo id="8" depart="4.00" departLane="E_1" departPos="5.10" departSpeed="13.03" departDelay="0.00" arrival="255.00" arrivalLane="-W_0" arrivalPos="783.20" arrivalSpeed="12.50" duration="251.00" routeLength="1594.90" waitingTime="113.00" waitingCount="2" stopTime="0.00" timeLoss="128.12" rerouteNo="0" devices="tripinfo_8" vType="passenger" speedFactor="0.94" vaporized=""/>
    <tripinfo id="100" depart="83.00" departLane="S_1" departPos="5.10" departSpeed="14.79" departDelay="0.00" arrival="258.00" arrivalLane="-E_0" arrivalPos="783.20" arrivalSpeed="14.60" duration="175.00" routeLength="1589.40" waitingTime="54.00" waitingCount="2" stopTime="0.00" timeLoss="66.67" rerouteNo="0" devices="tripinfo_100" vType="passenger" speedFactor="1.06" vaporized=""/>
    <tripinfo id="16" depart="8.00" departLane="E_3" departPos="5.10" departSpeed="12.20" departDelay="0.00" arrival="259.00" arrivalLane="-W_0" arrivalPos="783.20" arrivalSpeed="12.17" duration="251.00" routeLength="1594.90" waitingTime="102.00" waitingCount="2" stopTime="0.00" timeLoss="119.42" rerouteNo="0" devices="tripinfo_16" vType="passenger" speedFactor="0.88" vaporized=""/>
    <tripinfo id="130" depart="107.00" departLane="S_1" departPos="5.10" departSpeed="14.34" departDelay="0.00" arrival="261.00" arrivalLane="-N_0" arrivalPos="780.00" arrivalSpeed="13.94" duration="154.00" routeLength="1595.43" waitingTime="14.00" waitingCount="1" stopTime="0.00" timeLoss="41.98" rerouteNo="0" devices="tripinfo_130" vType="passenger" speedFactor="1.03" vaporized=""/>
    <tripinfo id="155" depart="133.00" departLane="N_2" departPos="5.10" departSpeed="15.61" departDelay="0.00" arrival="261.00" arrivalLane="-W_2" arrivalPos="783.20" arrivalSpeed="15.44" duration="128.00" routeLength="1588.47" waitingTime="12.00" waitingCount="1" stopTime="0.00" timeLoss="25.73" rerouteNo="0" devices="tripinfo_155" vType="passenger" speedFactor="1.12" vaporized=""/>
    <tripinfo id="82" depart="68.00" departLane="S_2" departPos="5.10" departSpeed="14.12" departDelay="0.00" arrival="262.00" arrivalLane="-E_0" arrivalPos="783.20" arrivalSpeed="13.23" duration="194.00" routeLength="1593.79" waitingTime="64.00" waitingCount="3" stopTime="0.00" timeLoss="80.05" rerouteNo="0" devices="tripinfo_82" vType="passenger" speedFactor="1.02" vaporized=""/>
    <tripinfo id="119" depart="99.00" departLane="N_3" departPos="5.10" departSpeed="14.87" departDelay="0.00" arrival="262.00" arrivalLane="-W_0" arrivalPos="783.20" arrivalSpeed="14.10" duration="163.00" routeLength="1588.47" waitingTime="33.00" waitingCount="4" stopTime="0.00" timeLoss="55.39" rerouteNo="0" devices="tripinfo_119" vType="passenger" speedFactor="1.07" vaporized=""/>
    <tripinfo id="133" depart="111.00" departLane="N_3" departPos="5.10" departSpeed="14.41" departDelay="0.00" arrival="263.00" arrivalLane="-W_0" arrivalPos="783.20" arrivalSpeed="14.11" duration="152.00" routeLength="1592.81" waitingTime="20.00" waitingCount="2" stopTime="0.00" timeLoss="41.12" rerouteNo="0" devices="tripinfo_133" vType="passenger" speedFactor="1.04" vaporized=""/>
    <tripinfo id="116" depart="96.00" departLane="S_2" departPos="5.10" departSpeed="16.35" departDelay="0.00" arrival="265.00" arrivalLane="-E_1" arrivalPos="783.20" arrivalSpeed="16.18" duration="169.00" routeLength="1589.40" waitingTime="55.00" waitingCount="3" stopTime="0.00" timeLoss="71.28" rerouteNo="0" devices="tripinfo_116" vType="passenger" speedFactor="1.18" vaporized=""/>